# vtk DataFile Version 2.0
Generated by Mindboggle (www.mindboggle.info)
ASCII
DATASET POLYDATA
POINTS 630 float
-13.6900558472 14.5735502243 -17.9018058777
-22.3430461884 34.4971694946 -20.0495433807
-23.0681018829 33.7540550232 -19.6491546631
-12.7949895859 14.3422222137 -19.1541385651
-21.9739665985 33.2362785339 -20.4153060913
-11.9031839371 34.2482147217 -11.8895759583
-11.2098941803 19.0230312347 -17.7356987
-11.4058256149 18.5435619354 -18.1951217651
-12.2557611465 17.1853580475 -18.0831165314
-11.4944429398 18.4640579224 -19.6858711243
-24.1593017578 19.3644638062 -23.4832344055
-24.3619270325 19.7065467834 -23.6548137665
-24.474067688 19.7031269073 -23.8917980194
-24.4428787231 19.4872589111 -24.1168575287
-12.0276908875 18.460067749 -20.8691101074
-12.8662996292 18.6319618225 -21.8083095551
-14.0753135681 18.9810638428 -22.4757995605
-15.432762146 19.4978160858 -22.7120380402
-16.7682800293 19.7816467285 -23.0201377869
-17.6335525513 19.6888637543 -24.1692428589
-18.2850818634 19.5184860229 -24.8754348755
-22.9941444397 19.0968055725 -23.5169353485
-23.7128639221 19.4451637268 -23.4730415344
-23.7290039062 19.0045185089 -24.7696685791
-23.8670921326 18.784954071 -25.42852211
-11.6742706299 16.6569538116 -18.8731250763
-12.8037061691 16.6153354645 -17.9305744171
-14.8733634949 18.635269165 -22.7923259735
-15.9942531586 18.7623844147 -22.9059677124
-17.2976894379 18.8614997864 -23.2191829681
-18.2286434174 18.7711162567 -24.1759319305
-19.1781578064 18.9882678986 -24.431728363
-20.3027114868 18.9281520844 -24.2062778473
-21.3996143341 18.9744739532 -24.1614971161
-22.2928256989 18.9345188141 -24.0100650787
-24.5501995087 18.6774902344 -26.2063236237
-24.82006073 17.6593208313 -23.6709747314
-24.9917507172 17.3211975098 -24.1892280579
-24.6137905121 17.5858268738 -24.6512699127
-12.8437604904 16.6865844727 -21.7958621979
-13.5859127045 17.1155796051 -22.4258670807
-23.9218349457 17.0852394104 -23.3290157318
-24.4738140106 17.1787624359 -23.2574729919
-24.6997451782 17.5116100311 -23.4715023041
-25.4339065552 17.0250263214 -24.9846553802
-18.138168335 36.730342865 -18.8760089874
-13.3490028381 16.1587619781 -22.1051883698
-14.0694189072 16.6211242676 -22.6618099213
-15.678150177 16.7735080719 -23.2151546478
-23.1849784851 17.0107955933 -23.6547451019
-20.4460163116 30.3074684143 -5.78148603439
-23.5157356262 29.2749824524 -20.6430702209
-23.8291549683 29.0331058502 -20.3569393158
-23.8534240723 29.275478363 -20.3612670898
-13.4410762787 30.4187145233 -17.3750114441
-14.6924571991 30.0808525085 -19.3520202637
-15.3639965057 30.4660282135 -20.0380687714
-23.1207580566 29.4486560822 -21.6748180389
-23.3348026276 29.021030426 -21.0737915039
-23.6780490875 28.5690631866 -20.7789363861
-23.8877429962 28.5880069733 -20.6352710724
-23.8478393555 27.9398517609 -20.9511394501
-15.2097930908 41.4714889526 -23.5904827118
-17.5705356598 38.816242218 -10.2779102325
-15.5401363373 29.2750453949 -20.3837661743
-16.1883010864 29.8189220428 -20.9690380096
-17.8952198029 29.7488918304 -22.380947113
-19.6271972656 29.7256736755 -23.3901023865
-21.1902866364 29.5727844238 -23.205116272
-22.2062301636 29.3526706696 -22.4998703003
-22.8032131195 29.0748348236 -22.0355968475
-23.6790142059 27.4962749481 -21.5256843567
-18.163444519 40.8349075317 -25.0925788879
-20.0297927856 29.2342300415 -23.9581108093
-20.4668292999 29.2770729065 -23.8892288208
-15.7460746765 38.4921875 -11.9876909256
-16.5146903992 38.7868728638 -11.1773958206
-17.2301311493 39.4030303955 -11.0081110001
-22.9115600586 30.7546367645 -20.620054245
-22.2099018097 32.6518287659 -6.43981266022
-22.9521884918 32.6439666748 -6.1101474762
-15.5483112335 33.6024971008 -7.37593317032
-16.4655170441 33.3963813782 -7.24824094772
-18.0200614929 33.4085235596 -7.11725234985
-19.7064037323 33.2638130188 -7.04322957993
-21.1411209106 33.0900611877 -7.05561733246
-22.2113990784 33.4749641418 -7.15356302261
-22.8940296173 33.5781517029 -6.8939576149
-23.3565044403 33.5625839233 -6.63977384567
-14.4153366089 33.6106758118 -7.76524829865
-16.0348796844 34.3409690857 -7.91434907913
-17.0948371887 34.0285873413 -7.52990198135
-20.3138713837 33.921672821 -7.67214250565
-20.6169681549 33.674697876 -7.48364639282
-13.3058824539 34.7888755798 -9.24004459381
-14.783821106 34.5864219666 -8.3892288208
-12.804066658 35.1819572449 -11.5329027176
-12.7359027863 35.1343231201 -13.603685379
-12.9917507172 35.5309333801 -15.8251924515
-14.0114841461 35.7741775513 -17.6868553162
-15.2960739136 38.4473152161 -21.6071300507
-15.2813472748 35.6102828979 -18.9671821594
-17.4057273865 35.0910873413 -19.4874458313
-19.5154819489 34.7443809509 -19.7543811798
-21.2948265076 34.2918624878 -19.5644454956
-22.5370674133 33.6041145325 -18.9804763794
-23.3665752411 32.7767066956 -18.6004333496
-23.4008560181 31.9557285309 -18.5985431671
-23.7394523621 32.9561920166 -18.6175289154
-23.5917758942 31.9933929443 -18.8978748322
-23.5312423706 31.0470600128 -19.2933216095
-22.7970066071 31.5471153259 -19.7291221619
-23.0977973938 30.951128006 -19.7439155579
-22.9729690552 30.7535228729 -20.6524143219
-14.9553909302 38.533367157 -14.4516439438
-14.3513259888 39.1863288879 -15.3376779556
-15.9494609833 38.1689567566 -16.9610042572
-6.53797149658 25.3921947479 -14.9681425095
-7.46339941025 26.0185337067 -16.101266861
-8.19962787628 26.9026184082 -16.4289340973
-8.30804443359 26.163942337 -17.1181182861
-9.22579097748 26.8699607849 -17.3858966827
-10.599855423 27.0206756592 -18.3054199219
-11.7743577957 27.6697883606 -18.6950130463
-13.2440261841 27.8479557037 -18.9651374817
-14.3392391205 28.0390014648 -19.6591758728
-23.4778404236 27.4837627411 -21.9132156372
-23.7703990936 26.9052562714 -21.7964859009
-23.8777618408 26.7732105255 -21.3340091705
-23.9516124725 26.5319900513 -21.1357517242
-24.0328559875 26.2382259369 -21.2243518829
-18.1497211456 37.2960090637 -9.49098300934
-11.9490156174 26.4479885101 -19.0171985626
-13.1286973953 26.6193523407 -19.4103069305
-14.411233902 26.9030742645 -20.0612182617
-15.4432563782 27.5882968903 -21.1737518311
-16.2469596863 28.0196247101 -23.2293872833
-17.2401657104 28.3886985779 -24.0029811859
-22.6375389099 27.3494377136 -22.550573349
-23.2979602814 26.8202724457 -22.3362255096
-23.7754058838 26.5593261719 -22.0518512726
-24.0000553131 26.060541153 -21.7385387421
-16.950548172 37.7448348999 -17.7437133789
-16.745267868 28.00025177 -24.5239868164
-18.081735611 28.1466331482 -24.926279068
-19.7467155457 27.7880249023 -25.1335124969
-20.9592170715 27.6074352264 -24.3339595795
-22.2435760498 26.8043403625 -23.1341323853
-23.0011863708 26.5117015839 -22.8252220154
-19.4589443207 36.1148757935 -19.6324272156
-20.8762302399 27.0219154358 -24.986333847
-21.5435676575 26.5710353851 -23.9364490509
-21.9701805115 26.3559341431 -23.4649848938
-21.0551128387 35.7788162231 -19.7009944916
-15.8859596252 38.8949012756 -12.1880331039
-16.1850719452 39.3850059509 -12.0167703629
-16.6584529877 40.0249252319 -11.8824958801
-15.6846294403 39.0635414124 -12.9080581665
-15.4942340851 39.6330337524 -13.5576868057
-14.4976844788 33.4597167969 -17.1433963776
-23.2438430786 31.3295841217 -18.9755268097
-14.8151264191 39.6929397583 -15.5633773804
-16.0108966827 38.9155769348 -16.7371063232
-16.6338424683 38.1884727478 -17.96367836
-16.997625351 37.2630729675 -19.4515209198
-18.6368141174 36.8097724915 -20.1314792633
-16.7783985138 37.2978973389 -20.7143974304
-18.7608337402 36.7782058716 -20.7781791687
-18.7126121521 34.1610565186 -7.64813518524
-15.4945831299 32.9888305664 -19.3645267487
-16.7447490692 37.3084030151 -21.9009742737
-18.7453022003 36.6583251953 -21.5810470581
-17.2851276398 37.6305084229 -22.9917621613
-18.3132953644 36.6329917908 -22.6421089172
-17.2929325104 37.3816642761 -24.3348484039
-6.54492855072 23.0893783569 -14.0155601501
-7.57116556168 23.136548996 -15.3492269516
-23.464225769 32.92029953 -19.2275104523
-8.69355106354 23.3067264557 -16.6069507599
-24.3889598846 25.0135002136 -21.9753570557
-24.4743366241 24.7566490173 -21.7979030609
-24.3814926147 25.0588588715 -21.6556587219
-9.34183216095 23.6019992828 -17.6618785858
-9.96345233917 23.8297309875 -18.5998191833
-10.8562002182 24.1267242432 -19.4113006592
-12.0687274933 24.3729248047 -20.0817298889
-13.5010490417 24.5080375671 -21.1506977081
-14.6824989319 25.2108707428 -22.1748924255
-15.2130470276 26.0650730133 -23.3945789337
-15.4937114716 26.7181663513 -24.053396225
-24.1192779541 25.0069026947 -22.7422962189
-24.2434406281 24.8957386017 -22.399848938
-24.3645954132 24.8678874969 -22.180109024
-24.8238124847 24.1076583862 -22.0976753235
-24.7143802643 24.4450244904 -22.0098686218
-24.3324832916 24.1387138367 -22.9400482178
-14.211312294 23.7921485901 -21.6529750824
-14.5241031647 24.3211402893 -22.4608879089
-14.867729187 24.934627533 -23.7143383026
-15.9935455322 25.8513412476 -24.4187793732
-17.6847724915 25.7890625 -25.0540771484
-19.2412548065 25.581029892 -25.1687984467
-23.9155540466 24.988779068 -23.0157375336
-23.7492351532 23.883934021 -23.4169750214
-23.9599628448 36.5145759583 -7.29575634003
-20.7139606476 25.2948169708 -25.2099246979
-21.723361969 25.0289974213 -24.7410068512
-22.3839740753 24.7317447662 -23.7001113892
-23.1453056335 24.7131500244 -23.1709728241
-20.8638248444 30.0580253601 -5.47348546982
-16.8746757507 32.5585021973 -20.5712108612
-17.3393611908 33.0199432373 -20.9947338104
-19.4708709717 32.6703491211 -21.2784194946
-20.9720039368 32.614528656 -21.3765659332
-23.6246776581 30.2519454956 -20.0418949127
-8.83796596527 21.4147644043 -14.7665262222
-9.83173942566 21.1938648224 -15.6870269775
-11.7921066284 16.5886478424 -20.3282756805
-9.37403297424 21.8420009613 -15.9235563278
-9.81588172913 21.5112628937 -17.0119590759
-10.0354776382 21.1649913788 -17.8272838593
-12.9097805023 33.1420516968 -15.4694404602
-14.0137901306 33.8003082275 -15.8493261337
-9.92770862579 21.7676696777 -17.9051151276
-10.4427967072 21.589756012 -18.8115158081
-10.9916744232 22.1762676239 -19.8377761841
[...]
POINT_DATA 630
SCALARS scalars float64
LOOKUP_TABLE scalars
1006.0
1006.0
1006.0
1006.0
1006.0
1006.0
1006.0
1006.0
1006.0
1006.0
1006.0
1006.0
1006.0
1006.0
1006.0
1006.0
1006.0
1006.0
1006.0
1006.0
1006.0
1006.0
1006.0
1006.0
1006.0
1006.0
1006.0
1006.0
1006.0
1006.0
1006.0
1006.0
1006.0
1006.0
1006.0
1006.0
1006.0
1006.0
1006.0
1006.0
1006.0
1006.0
1006.0
1006.0
1006.0
1006.0
1006.0
1006.0
1006.0
1006.0
1006.0
1006.0
1006.0
1006.0
1006.0
1006.0
1006.0
1006.0
1006.0
1006.0
1006.0
1006.0
1006.0
1006.0
1006.0
1006.0
1006.0
1006.0
1006.0
1006.0
1006.0
1006.0
1006.0
1006.0
1006.0
1006.0
1006.0
1006.0
1006.0
1006.0
1006.0
1006.0
1006.0
1006.0
1006.0
1006.0
1006.0
1006.0
1006.0
1006.0
1006.0
1006.0
1006.0
1006.0
1006.0
1006.0
1006.0
1006.0
1006.0
1006.0
1006.0
1006.0
1006.0
1006.0
1006.0
1006.0
1006.0
1006.0
1006.0
1006.0
1006.0
1006.0
1006.0
1006.0
1006.0
1006.0
1006.0
1006.0
1006.0
1006.0
1006.0
1006.0
1006.0
1006.0
1006.0
1006.0
1006.0
1006.0
1006.0
1006.0
1006.0
1006.0
1006.0
1006.0
1006.0
1006.0
1006.0
1006.0
1006.0
1006.0
1006.0
1006.0
1006.0
1006.0
1006.0
1006.0
1006.0
1006.0
1006.0
1006.0
1006.0
1006.0
1006.0
1006.0
1006.0
1006.0
1006.0
1006.0
1006.0
1006.0
1006.0
1006.0
1006.0
1006.0
1006.0
1006.0
1006.0
1006.0
1006.0
1006.0
1006.0
1006.0
1006.0
1006.0
1006.0
1006.0
1006.0
1006.0
1006.0
1006.0
1006.0
1006.0
1006.0
1006.0
1006.0
1006.0
1006.0
1006.0
1006.0
1006.0
1006.0
1006.0
1006.0
1006.0
1006.0
1006.0
1006.0
1006.0
1006.0
1006.0
1006.0
1006.0
1006.0
1006.0
1006.0
1006.0
1006.0
1006.0
1006.0
1006.0
1006.0
1006.0
1006.0
1006.0
1006.0
1006.0
1006.0
1006.0
1006.0
1006.0
1006.0
1006.0
1006.0
1006.0
1006.0
1006.0
1006.0
1006.0
1006.0
1006.0
1006.0
1006.0
1006.0
1006.0
1006.0
1006.0
1006.0
1006.0
1006.0
1006.0
1006.0
1006.0
1006.0
1006.0
1006.0
1006.0
1006.0
1006.0
1006.0
1006.0
1006.0
1006.0
1006.0
1006.0
1006.0
1006.0
1006.0
1006.0
1006.0
1006.0
1006.0
1006.0
1006.0
1006.0
1006.0
1006.0
1006.0
1006.0
1006.0
1006.0
1006.0
1006.0
1006.0
1006.0
1006.0
1006.0
1006.0
1006.0
1006.0
1006.0
1006.0
1006.0
1006.0
1006.0
1006.0
1006.0
1006.0
1006.0
1006.0
1006.0
1006.0
1006.0
1006.0
1006.0
1006.0
1006.0
1006.0
1006.0
1006.0
1006.0
1006.0
1006.0
1006.0
1006.0
1006.0
1006.0
1006.0
1006.0
1006.0
1006.0
1006.0
1006.0
1006.0
1006.0
1006.0
1006.0
1006.0
1006.0
1006.0
1006.0
1006.0
1006.0
1006.0
1006.0
1006.0
1006.0
1006.0
1006.0
1006.0
1006.0
1006.0
1006.0
1006.0
1006.0
1006.0
1006.0
1006.0
1006.0
1006.0
1006.0
1006.0
1006.0
1006.0
1006.0
1006.0
1006.0
1006.0
1006.0
1006.0
1006.0
1006.0
1006.0
1006.0
1006.0
1006.0
1006.0
1006.0
1006.0
1006.0
1006.0
1006.0
1006.0
1006.0
1006.0
1006.0
1006.0
1006.0
1006.0
1006.0
1006.0
1006.0
1006.0
1006.0
1006.0
1006.0
1006.0
1006.0
1006.0
1006.0
1006.0
1006.0
1006.0
1006.0
1006.0
1006.0
1006.0
1006.0
1006.0
1006.0
1006.0
1006.0
1006.0
1006.0
1006.0
1006.0
1006.0
1006.0
1006.0
1006.0
1006.0
1006.0
1006.0
1006.0
1006.0
1006.0
1006.0
1006.0
1006.0
1006.0
1006.0
1006.0
1006.0
1006.0
1006.0
1006.0
1006.0
1006.0
1006.0
1006.0
1006.0
1006.0
1006.0
1006.0
1006.0
1006.0
1006.0
1006.0
1006.0
1006.0
1006.0
1006.0
1006.0
1006.0
1006.0
1006.0
1006.0
1006.0
1006.0
1006.0
1006.0
1006.0
1006.0
1006.0
1006.0
1006.0
1006.0
1006.0
1006.0
1006.0
1006.0
1006.0
1006.0
1006.0
1006.0
1006.0
1006.0
1006.0
1006.0
1006.0
1006.0
1006.0
1006.0
1006.0
1006.0
1006.0
1006.0
1006.0
1006.0
1006.0
1006.0
1006.0
1006.0
1006.0
1006.0
1006.0
1006.0
1006.0
1006.0
1006.0
1006.0
1006.0
1006.0
1006.0
1006.0
1006.0
1006.0
1006.0
1006.0
1006.0
1006.0
1006.0
1006.0
1006.0
1006.0
1006.0
1006.0
1006.0
1006.0
1006.0
1006.0
1006.0
1006.0
1006.0
1006.0
1006.0
1006.0
1006.0
1006.0
1006.0
1006.0
1006.0
1006.0
1006.0
1006.0
1006.0
1006.0
1006.0
1006.0
1006.0
1006.0
1006.0
1006.0
1006.0
1006.0
1006.0
1006.0
1006.0
1006.0
1006.0
1006.0
1006.0
1006.0
1006.0
1006.0
1006.0
1006.0
1006.0
1006.0
1006.0
1006.0
1006.0
1006.0
1006.0
1006.0
1006.0
1006.0
1006.0
1006.0
1006.0
1006.0
1006.0
1006.0
1006.0
1006.0
1006.0
1006.0
1006.0
1006.0
1006.0
1006.0
1006.0
1006.0
1006.0
1006.0
1006.0
1006.0
1006.0
1006.0
1006.0
1006.0
1006.0
1006.0
1006.0
1006.0
1006.0
1006.0
1006.0
1006.0
1006.0
1006.0
1006.0
1006.0
1006.0
1006.0
1006.0
1006.0
1006.0
1006.0
1006.0
1006.0
1006.0
1006.0
1006.0
1006.0
1006.0
1006.0
1006.0
1006.0
1006.0
1006.0
1006.0
1006.0
1006.0
1006.0
1006.0
1006.0
1006.0
1006.0
1006.0
1006.0
1006.0
1006.0
1006.0
1006.0
1006.0
1006.0
1006.0
1006.0
1006.0
1006.0
1006.0
1006.0
1006.0
1006.0
1006.0
1006.0
1006.0
1006.0
1006.0
1006.0

