# vtk DataFile Version 2.0
Generated by Mindboggle (www.mindboggle.info)
ASCII
DATASET POLYDATA
POINTS 661 float
-26.3675289154 44.9984397888 -5.01455879211
-27.5126476288 44.553653717 -4.12513256073
-25.4795646667 44.9430465698 -5.81004238129
-25.0398597717 44.5132827759 -6.37974452972
-24.7654018402 44.1367111206 -7.3143787384
-24.6996517181 43.8489952087 -8.41782569885
-22.3373317719 45.1296768188 -9.33495521545
-23.5560626984 44.330997467 -9.21772098541
-24.4176330566 43.5769996643 -9.02042198181
-31.8080368042 47.4163360596 -16.5052394867
-18.1596126556 47.2948875427 -12.6521959305
-18.9519023895 46.3663253784 -11.0943832397
-19.8903541565 45.4892997742 -9.8985042572
-21.2397785187 44.7076416016 -9.49853420258
-31.6261177063 46.5347557068 -16.7798938751
-16.441110611 48.154258728 -15.2636060715
-16.7264823914 47.0753707886 -13.6955156326
-31.2910614014 46.4382553101 -18.0796337128
-31.6245994568 45.8231697083 -17.4069747925
-17.1068553925 47.8272399902 -17.0079460144
-20.5123710632 49.1391677856 -19.8848171234
-22.350358963 48.4962158203 -19.8926239014
-24.1915168762 48.1893196106 -20.140422821
-25.7633342743 47.5445823669 -19.9231567383
-27.1561698914 46.9466285706 -19.9449157715
-30.9599456787 45.8521003723 -18.8043251038
-31.5624809265 45.2186164856 -18.2168750763
-17.5956134796 48.4196853638 -20.5280647278
-18.1420688629 47.9886779785 -19.3180160522
-19.6313514709 48.9107704163 -20.4471359253
-21.4596710205 48.0331115723 -20.2232990265
-28.455280304 46.4579277039 -20.0679473877
-29.5102920532 45.8600616455 -19.7669181824
-30.4482269287 45.2602386475 -19.3829345703
-25.8380718231 40.2608413696 -5.60607337952
-26.6550273895 39.8626670837 -4.80599355698
-17.3914070129 48.5336837769 -20.8016719818
-17.8016166687 48.6255187988 -20.8175888062
-18.7218017578 48.517326355 -20.9199180603
-17.4946250916 48.6091461182 -21.0147590637
-17.7020225525 48.5905990601 -21.1235408783
-25.6590919495 40.2202644348 -6.10652256012
-25.5676231384 39.8042373657 -5.97016763687
-24.9355316162 40.200592041 -7.77463054657
-25.0465774536 40.0094642639 -7.1172118187
-24.8400611877 39.9267616272 -8.23935031891
-24.8867721558 39.967666626 -7.69845819473
-25.9351921082 57.0010719299 -6.39502573013
-22.378786087 39.8213691711 -9.52794551849
-23.6551742554 39.8923950195 -9.37029266357
-24.4719734192 39.9328994751 -9.15305519104
-24.8311424255 40.0160636902 -8.89486312866
-20.4219837189 40.6192436218 -11.2643404007
-21.3616828918 40.5498657227 -10.2311592102
-17.3587055206 41.8251419067 -12.2875528336
-19.0903663635 41.6681213379 -11.8999376297
-16.1732940674 40.4666786194 -14.7940359116
-16.1773872375 41.2671012878 -14.7708148956
-16.5553016663 42.2331619263 -13.8091611862
-27.0691928864 47.1357917786 -4.30116128922
-16.2736225128 40.1780357361 -15.7566156387
-14.9696426392 41.1563148499 -17.1582183838
-27.1459293365 43.3534507751 -20.6422977448
-27.2035446167 42.5494155884 -20.2717666626
-27.4717655182 41.9754257202 -19.8400115967
-28.3998012543 41.497051239 -19.6175537109
-29.4933948517 41.3109512329 -19.4554424286
-28.6507930756 57.6564445496 -6.06599807739
-14.6380939484 41.6442184448 -19.7594718933
-27.1179409027 43.4488105774 -20.9292392731
-27.1590862274 42.4074249268 -20.6367263794
-14.7864189148 41.8212585449 -21.8401451111
-27.1171112061 43.3685455322 -21.6042366028
-27.1598339081 42.3844947815 -20.9310150146
-26.5872764587 43.901348114 -22.9655227661
-23.6343994141 46.3116912842 -21.6403102875
-33.8406944275 56.4301223755 -9.72284984589
-22.9412002563 49.9519119263 -8.91973018646
-26.0103569031 45.6149482727 -21.5880908966
-24.4584903717 47.7852325439 -6.22261762619
-29.8638191223 57.4828491211 -6.24392461777
-24.3343029022 38.1173706055 -8.36598300934
-23.9641990662 47.5905799866 -7.15871810913
-24.730884552 46.636756897 -6.4840388298
-23.1276111603 46.1047668457 -22.0580654144
-24.3220386505 55.9450149536 -7.06185674667
-30.3730125427 51.5297966003 -14.3090238571
-30.5188407898 51.2673377991 -14.5703706741
-30.5796661377 51.0977516174 -14.6935749054
-30.1492614746 46.5174713135 -19.2776355743
-23.3792705536 47.1789741516 -9.04862976074
-24.8136558533 52.7420959473 -17.2375888824
-24.0622997284 46.1149902344 -8.34688282013
-30.5744934082 50.8624000549 -15.0357294083
-24.1991195679 56.2330703735 -9.22742462158
-26.8949375153 43.0133399963 -4.18708753586
-27.7878398895 52.7138175964 -16.9957237244
-26.0630397797 42.9629936218 -5.03465604782
-24.4058208466 56.317489624 -8.33507919312
-25.6170387268 42.479801178 -6.28934860229
-25.2758102417 42.1749191284 -7.3464550972
-24.9677028656 41.9253578186 -8.16046237946
-20.6499176025 43.0222358704 -9.80758094788
-21.316444397 42.7718505859 -9.60636520386
-22.4257888794 42.774471283 -9.34739780426
-23.8641834259 42.1570243835 -9.17560100555
-24.600522995 41.6161613464 -8.72711658478
-23.6404685974 52.3741531372 -17.3039321899
-18.457277298 44.7475166321 -12.2576885223
-20.0015239716 43.6277122498 -10.723151207
-20.7574558258 43.3314056396 -9.57841968536
-21.5017356873 43.1091041565 -9.52871990204
-17.3060302734 44.589050293 -13.5685796738
-16.6819171906 45.8015289307 -17.2854824066
-16.4489212036 44.6720809937 -15.1701946259
-24.6988983154 46.975818634 -21.0661640167
-26.1979980469 46.1996879578 -20.7674980164
-27.1770343781 45.2150650024 -20.2862548828
-28.2014484406 44.5693283081 -20.1797790527
-26.9211578369 49.1941947937 -3.37091732025
-27.4139194489 49.0092430115 -3.1882724762
-28.5833320618 48.7949066162 -3.13134717941
-29.5826587677 48.6208305359 -2.9534239769
-16.7481937408 46.3849105835 -19.609128952
-21.8104038239 46.9617118835 -21.1414337158
-24.2560386658 46.6669197083 -21.377073288
-29.2050571442 44.0374412537 -20.0330524445
-30.0715732574 43.5505599976 -19.640586853
-30.8039932251 43.1116523743 -19.1874828339
-31.2206192017 42.6991844177 -18.6069355011
-29.0698604584 47.588470459 -3.35080957413
-17.1406784058 46.3180122375 -22.6378517151
-17.3244113922 47.1455764771 -22.0866756439
-21.0103874207 46.7330436707 -21.7036762238
-17.1856460571 45.8757858276 -23.1226329803
-18.5381908417 46.1528205872 -22.7438087463
-20.826259613 46.2010955811 -22.2764396667
-17.2157115936 45.4251823425 -23.405008316
-18.7025852203 45.1835594177 -23.2884368896
-21.2605228424 45.577747345 -23.1368274689
-22.504617691 45.3780441284 -23.468963623
-19.518901825 44.4873847961 -23.5609054565
-20.5734958649 44.8214569092 -23.6086502075
-22.0086631775 45.048500061 -23.7274627686
-30.0505867004 52.5357971191 -13.3200349808
-30.2759838104 52.0669403076 -13.6726350784
-30.3422050476 51.86195755 -13.8444566727
-30.4934997559 52.0035896301 -13.9794368744
-22.3054637909 49.8925361633 -9.70341873169
-22.8416175842 49.0797119141 -9.28000736237
-29.9482650757 52.3539085388 -13.992688179
-30.0961723328 52.0700263977 -14.0321416855
-20.4629745483 50.6127510071 -10.6681652069
-21.4748439789 49.9170684814 -10.0701465607
-22.6299934387 48.1655807495 -9.47761249542
-29.8592453003 52.1175575256 -14.4334354401
-26.1471061707 37.5883636475 -5.1138253212
-26.4792423248 37.9557914734 -4.92116689682
-27.4011936188 38.249294281 -4.49836826324
-28.28465271 38.359539032 -4.02062511444
-17.4258804321 50.7601127625 -13.7914571762
-18.3383274078 50.65675354 -12.7796192169
-19.7335357666 50.4231491089 -11.2887210846
-20.5759334564 48.7891654968 -10.1557092667
-25.6237831116 37.8701858521 -5.43502187729
-25.7855148315 38.4140357971 -5.38263988495
-26.1248264313 56.5555038452 -10.9951581955
-17.2516975403 50.6352844238 -14.4524812698
-18.0686321259 51.048915863 -14.9055948257
-29.6215457916 51.3115348816 -16.7007980347
-24.8665390015 38.0372619629 -6.16028928757
-17.4524440765 50.7178726196 -15.2815647125
-18.4173793793 51.2430763245 -16.3355808258
-24.5269126892 38.2507095337 -7.41323232651
-21.4852542877 51.3281288147 -18.243680954
-23.3002719879 50.9837417603 -18.466917038
-25.0939044952 50.5672531128 -18.533624649
-29.2609710693 50.6430854797 -17.932723999
-29.9647102356 49.3958702087 -17.9548931122
-22.4254341125 38.2389144897 -9.60785675049
-23.3883247375 38.3361434937 -9.11986637115
-24.2492485046 38.4707107544 -9.0169801712
-24.5382614136 38.7824440002 -8.55228328705
-19.0574474335 39.4157447815 -10.7419996262
-20.1127109528 39.3102607727 -10.9638910294
-21.5254859924 38.9395484924 -10.5936841965
-26.6934604645 53.7707748413 -2.6365609169
-27.4329319 53.7946662903 -2.33286523819
-28.4751987457 53.7636795044 -1.90209913254
-29.483669281 53.6569519043 -1.22527313232
-18.0636768341 40.1240844727 -11.3804998398
-18.9646110535 40.2970085144 -11.389588356
-24.2889766693 53.7777671814 -4.74440145493
-24.8450298309 53.6520195007 -4.12217140198
-25.9598197937 53.5904960632 -3.23570823669
-30.0081253052 52.5939750671 -1.02369451523
-30.490776062 52.0200195312 -0.912051141262
-23.8407230377 54.2966690063 -6.26250362396
-23.8823680878 53.835105896 -5.61616420746
-28.1607761383 56.3641319275 -8.73293590546
-28.6102142334 56.0533256531 -8.88679981232
-29.2552680969 55.8946495056 -8.79803562164
-29.9767684937 55.8137245178 -9.04512882233
-30.6315383911 55.9318389893 -9.18478679657
-23.6037845612 54.0554199219 -6.70472860336
-23.501499176 52.8821029663 -6.24394321442
-28.2520847321 55.9608573914 -9.28974246979
-28.8813362122 55.0438308716 -9.7520236969
-30.4237136841 55.1672859192 -9.77050018311
-30.9455032349 55.383190155 -10.2367811203
-31.5312576294 55.5150909424 -10.7663164139
-27.7738704681 47.8814926147 -3.45027160645
-22.971988678 54.3633804321 -7.76682758331
-28.0004463196 55.7838134766 -10.2671670914
-31.1607017517 54.9130630493 -11.1510982513
-31.7661895752 55.0215339661 -11.7284631729
-27.2158164978 40.5865707397 -20.7363853455
-27.220117569 39.7646560669 -20.4984893799
-27.5816879272 56.10364151 -11.4835739136
-22.049654007 55.1348991394 -11.7822952271
-27.6210517883 40.818901062 -21.5185279846
-26.932718277 56.4637832642 -12.1904716492
-27.7493457794 55.456287384 -13.0187187195
-21.6772727966 54.6904907227 -12.0725679398
-21.3751373291 53.8263931274 -11.0571126938
-26.7057704926 55.9773216248 -13.3886499405
[...]
POINT_DATA 661
SCALARS scalars float64
LOOKUP_TABLE scalars
1033.0
1033.0
1033.0
1033.0
1033.0
1033.0
1033.0
1033.0
1033.0
1033.0
1033.0
1033.0
1033.0
1033.0
1033.0
1033.0
1033.0
1033.0
1033.0
1033.0
1033.0
1033.0
1033.0
1033.0
1033.0
1033.0
1033.0
1033.0
1033.0
1033.0
1033.0
1033.0
1033.0
1033.0
1033.0
1033.0
1033.0
1033.0
1033.0
1033.0
1033.0
1033.0
1033.0
1033.0
1033.0
1033.0
1033.0
1033.0
1033.0
1033.0
1033.0
1033.0
1033.0
1033.0
1033.0
1033.0
1033.0
1033.0
1033.0
1033.0
1033.0
1033.0
1033.0
1033.0
1033.0
1033.0
1033.0
1033.0
1033.0
1033.0
1033.0
1033.0
1033.0
1033.0
1033.0
1033.0
1033.0
1033.0
1033.0
1033.0
1033.0
1033.0
1033.0
1033.0
1033.0
1033.0
1033.0
1033.0
1033.0
1033.0
1033.0
1033.0
1033.0
1033.0
1033.0
1033.0
1033.0
1033.0
1033.0
1033.0
1033.0
1033.0
1033.0
1033.0
1033.0
1033.0
1033.0
1033.0
1033.0
1033.0
1033.0
1033.0
1033.0
1033.0
1033.0
1033.0
1033.0
1033.0
1033.0
1033.0
1033.0
1033.0
1033.0
1033.0
1033.0
1033.0
1033.0
1033.0
1033.0
1033.0
1033.0
1033.0
1033.0
1033.0
1033.0
1033.0
1033.0
1033.0
1033.0
1033.0
1033.0
1033.0
1033.0
1033.0
1033.0
1033.0
1033.0
1033.0
1033.0
1033.0
1033.0
1033.0
1033.0
1033.0
1033.0
1033.0
1033.0
1033.0
1033.0
1033.0
1033.0
1033.0
1033.0
1033.0
1033.0
1033.0
1033.0
1033.0
1033.0
1033.0
1033.0
1033.0
1033.0
1033.0
1033.0
1033.0
1033.0
1033.0
1033.0
1033.0
1033.0
1033.0
1033.0
1033.0
1033.0
1033.0
1033.0
1033.0
1033.0
1033.0
1033.0
1033.0
1033.0
1033.0
1033.0
1033.0
1033.0
1033.0
1033.0
1033.0
1033.0
1033.0
1033.0
1033.0
1033.0
1033.0
1033.0
1033.0
1033.0
1033.0
1033.0
1033.0
1033.0
1033.0
1033.0
1033.0
1033.0
1033.0
1033.0
1033.0
1033.0
1033.0
1033.0
1033.0
1033.0
1033.0
1033.0
1033.0
1033.0
1033.0
1033.0
1033.0
1033.0
1033.0
1033.0
1033.0
1033.0
1033.0
1033.0
1033.0
1033.0
1033.0
1033.0
1033.0
1033.0
1033.0
1033.0
1033.0
1033.0
1033.0
1033.0
1033.0
1033.0
1033.0
1033.0
1033.0
1033.0
1033.0
1033.0
1033.0
1033.0
1033.0
1033.0
1033.0
1033.0
1033.0
1033.0
1033.0
1033.0
1033.0
1033.0
1033.0
1033.0
1033.0
1033.0
1033.0
1033.0
1033.0
1033.0
1033.0
1033.0
1033.0
1033.0
1033.0
1033.0
1033.0
1033.0
1033.0
1033.0
1033.0
1033.0
1033.0
1033.0
1033.0
1033.0
1033.0
1033.0
1033.0
1033.0
1033.0
1033.0
1033.0
1033.0
1033.0
1033.0
1033.0
1033.0
1033.0
1033.0
1033.0
1033.0
1033.0
1033.0
1033.0
1033.0
1033.0
1033.0
1033.0
1033.0
1033.0
1033.0
1033.0
1033.0
1033.0
1033.0
1033.0
1033.0
1033.0
1033.0
1033.0
1033.0
1033.0
1033.0
1033.0
1033.0
1033.0
1033.0
1033.0
1033.0
1033.0
1033.0
1033.0
1033.0
1033.0
1033.0
1033.0
1033.0
1033.0
1033.0
1033.0
1033.0
1033.0
1033.0
1033.0
1033.0
1033.0
1033.0
1033.0
1033.0
1033.0
1033.0
1033.0
1033.0
1033.0
1033.0
1033.0
1033.0
1033.0
1033.0
1033.0
1033.0
1033.0
1033.0
1033.0
1033.0
1033.0
1033.0
1033.0
1033.0
1033.0
1033.0
1033.0
1033.0
1033.0
1033.0
1033.0
1033.0
1033.0
1033.0
1033.0
1033.0
1033.0
1033.0
1033.0
1033.0
1033.0
1033.0
1033.0
1033.0
1033.0
1033.0
1033.0
1033.0
1033.0
1033.0
1033.0
1033.0
1033.0
1033.0
1033.0
1033.0
1033.0
1033.0
1033.0
1033.0
1033.0
1033.0
1033.0
1033.0
1033.0
1033.0
1033.0
1033.0
1033.0
1033.0
1033.0
1033.0
1033.0
1033.0
1033.0
1033.0
1033.0
1033.0
1033.0
1033.0
1033.0
1033.0
1033.0
1033.0
1033.0
1033.0
1033.0
1033.0
1033.0
1033.0
1033.0
1033.0
1033.0
1033.0
1033.0
1033.0
1033.0
1033.0
1033.0
1033.0
1033.0
1033.0
1033.0
1033.0
1033.0
1033.0
1033.0
1033.0
1033.0
1033.0
1033.0
1033.0
1033.0
1033.0
1033.0
1033.0
1033.0
1033.0
1033.0
1033.0
1033.0
1033.0
1033.0
1033.0
1033.0
1033.0
1033.0
1033.0
1033.0
1033.0
1033.0
1033.0
1033.0
1033.0
1033.0
1033.0
1033.0
1033.0
1033.0
1033.0
1033.0
1033.0
1033.0
1033.0
1033.0
1033.0
1033.0
1033.0
1033.0
1033.0
1033.0
1033.0
1033.0
1033.0
1033.0
1033.0
1033.0
1033.0
1033.0
1033.0
1033.0
1033.0
1033.0
1033.0
1033.0
1033.0
1033.0
1033.0
1033.0
1033.0
1033.0
1033.0
1033.0
1033.0
1033.0
1033.0
1033.0
1033.0
1033.0
1033.0
1033.0
1033.0
1033.0
1033.0
1033.0
1033.0
1033.0
1033.0
1033.0
1033.0
1033.0
1033.0
1033.0
1033.0
1033.0
1033.0
1033.0
1033.0
1033.0
1033.0
1033.0
1033.0
1033.0
1033.0
1033.0
1033.0
1033.0
1033.0
1033.0
1033.0
1033.0
1033.0
1033.0
1033.0
1033.0
1033.0
1033.0
1033.0
1033.0
1033.0
1033.0
1033.0
1033.0
1033.0
1033.0
1033.0
1033.0
1033.0
1033.0
1033.0
1033.0
1033.0
1033.0
1033.0
1033.0
1033.0
1033.0
1033.0
1033.0
1033.0
1033.0
1033.0
1033.0
1033.0
1033.0
1033.0
1033.0
1033.0
1033.0
1033.0
1033.0
1033.0
1033.0
1033.0
1033.0
1033.0
1033.0
1033.0
1033.0
1033.0
1033.0
1033.0
1033.0
1033.0
1033.0
1033.0
1033.0
1033.0
1033.0
1033.0
1033.0
1033.0
1033.0
1033.0
1033.0
1033.0
1033.0
1033.0
1033.0
1033.0
1033.0
1033.0
1033.0
1033.0
1033.0
1033.0
1033.0
1033.0
1033.0
1033.0
1033.0
1033.0
1033.0
1033.0
1033.0
1033.0
1033.0
1033.0
1033.0
1033.0
1033.0
1033.0
1033.0
1033.0
1033.0
1033.0

