# vtk DataFile Version 2.0
Generated by Mindboggle (www.mindboggle.info)
ASCII
DATASET POLYDATA
POINTS 933 float
-31.5199661255 72.2951660156 15.8089256287
-36.0238304138 61.2717018127 7.53443813324
-37.1104393005 60.9407730103 7.37225246429
-39.0301437378 61.2873382568 7.90122127533
-39.9915351868 60.5026664734 8.65887832642
-32.9712028503 71.505607605 16.2018146515
-37.5230636597 60.1983299255 7.31587028503
-38.3646697998 60.3316116333 7.4593963623
-39.422958374 60.315322876 7.748670578
-41.4739952087 66.0469589233 21.8227958679
-41.9431381226 65.6919708252 21.7115268707
-27.1174793243 64.5700531006 17.4850940704
-27.5677528381 64.1945724487 17.3950500488
-28.0852642059 64.1550369263 17.5408267975
-28.6026515961 64.1602554321 17.5101661682
-29.0903930664 64.0973052979 17.3768196106
-37.6338615417 65.9470748901 21.4094295502
-38.3982696533 66.3994293213 21.1437358856
-39.6515235901 66.8329925537 21.2253894806
-41.2826461792 66.638710022 21.2557678223
-42.4563369751 65.5665740967 20.929681778
-25.9432830811 65.2372207642 16.970790863
-26.2587051392 65.1084518433 16.9444351196
-27.2049827576 64.3303375244 17.046333313
-27.8122501373 63.624168396 17.0822696686
-29.3829994202 64.1369400024 17.1250457764
-29.4742908478 64.3092651367 16.5990104675
-37.7652397156 66.4601745605 21.2035884857
-38.1041183472 67.0216751099 20.7680854797
-38.986240387 67.3935775757 20.4020347595
-40.2809715271 67.5999298096 20.4060249329
-41.2466392517 67.4117050171 20.2223072052
-42.7812271118 65.0888748169 19.9785728455
-26.1340847015 65.1680526733 16.7166690826
-26.9053630829 64.5843048096 16.3296279907
-27.8861465454 63.5207824707 15.773267746
-29.4197463989 64.3684234619 15.8053436279
-29.234041214 64.2672042847 14.7131347656
-42.8483810425 65.0440444946 18.7439689636
-42.9576721191 64.4706497192 18.0487442017
-33.8244285583 71.2548065186 15.3458766937
-26.5963096619 65.0138015747 15.9320831299
-27.5928649902 64.2565383911 14.8496303558
-28.8324317932 64.3700485229 13.2038002014
-42.5551605225 65.5161132812 17.3068599701
-42.9599571228 64.4836273193 17.3174877167
-36.4591789246 69.0167160034 25.4339256287
-34.1393737793 66.0618133545 9.32032203674
-37.1691703796 70.0552139282 24.1414871216
-29.1814785004 64.3999328613 11.4753398895
-40.0630645752 66.251701355 14.2137031555
-41.0774612427 66.1650390625 14.8505859375
-42.0499534607 65.548828125 15.7570495605
-42.7196884155 65.0393981934 16.6373100281
-37.4694213867 69.7207336426 22.9285335541
-37.5099601746 69.7829055786 22.1913433075
-30.0588684082 64.3186340332 9.94512176514
-30.5810661316 63.6139411926 9.61985206604
-37.6151924133 65.6949539185 12.5995903015
-38.9151268005 65.5594406128 13.0510253906
-40.574420929 65.5388946533 14.005569458
-41.4582901001 65.5599060059 14.7489032745
-26.8193264008 69.5863037109 16.7427978516
-26.9202060699 69.987197876 16.6860466003
-26.9007835388 70.5549163818 16.4888381958
-36.9637031555 70.4013061523 20.2357082367
-37.3474197388 69.9793014526 21.3106060028
-30.6712722778 64.97681427 8.95889091492
-30.7839813232 64.0419464111 9.01953315735
-35.9280548096 65.895324707 10.5113639832
-36.9268302917 65.4666900635 11.3499145508
-37.8239860535 65.2406616211 12.2235736847
-26.7727890015 69.6686325073 16.7183380127
-26.9194526672 70.0558319092 16.5020751953
-27.0549449921 70.3456802368 16.2037029266
-36.7265739441 70.4317474365 19.095823288
-26.8837909698 69.5389938354 15.8621921539
-27.2726688385 70.6487579346 15.8307228088
-31.1466674805 65.3203582764 8.81474876404
-31.7400054932 64.8148574829 8.70211410522
-33.5345993042 65.0950088501 8.61053657532
-35.2816390991 65.5747833252 9.3933506012
-36.2192001343 65.4771881104 10.2265930176
-26.610710144 74.3398590088 15.8300609589
-34.4481811523 68.5597076416 11.5926818848
-26.8080253601 69.3117523193 14.6938991547
-27.5993804932 70.8690185547 15.2872943878
-27.8995780945 71.1380615234 14.5900630951
-34.3967247009 71.285949707 15.5224380493
-35.5160636902 71.0004959106 15.9435691833
-35.969543457 70.4537124634 15.2660255432
-28.4624061584 71.2719192505 13.8194732666
-32.6474876404 71.1808929443 14.2327785492
-33.6218490601 71.0548858643 14.5844211578
-34.7403488159 70.6390380859 14.2921009064
-28.1813049316 70.0776367188 13.2016277313
-34.7751808167 57.9922714233 7.62660121918
-29.4653110504 71.1584625244 13.4389419556
-30.3304271698 70.8821411133 13.0966587067
-31.9581794739 70.9447555542 13.3963718414
-33.1430358887 70.5303421021 13.1134490967
-34.2368927002 69.9473342896 12.9454555511
-35.2647018433 69.5419082642 13.2092552185
-34.2972145081 72.1094894409 22.1080379486
-30.577457428 70.2398376465 12.5168056488
-31.5166969299 70.0104675293 12.2372379303
-32.6227912903 69.5494842529 11.8846607208
-33.6108093262 69.4042205811 12.0372200012
-33.5210762024 54.2141075134 6.12239742279
-41.9610404968 54.9737434387 8.649974823
-28.5242881775 58.8683891296 16.0335407257
-36.2585411072 45.1170845032 12.7440795898
-37.2507629395 45.1488647461 11.8529720306
-38.1621932983 45.1307106018 11.0743160248
-38.6046028137 45.3000564575 9.98963737488
-38.8897323608 45.8322906494 8.74635696411
-39.4660186768 46.159614563 8.21622657776
-28.657119751 58.5221099854 15.4359531403
-29.0566825867 58.6750946045 15.0897655487
-38.5988082886 56.3215789795 18.6423854828
-39.4904022217 56.7218170166 18.6432933807
-35.8505935669 46.1506462097 6.75696563721
-41.6048545837 56.8470306396 19.2453098297
-43.1847381592 57.4201622009 19.3050460815
-44.8207397461 57.3726997375 18.4512805939
-45.4573249817 57.3557319641 16.9584102631
-31.8877906799 67.939201355 10.375787735
-28.9581947327 58.1112556458 14.7470436096
-29.4520301819 58.1856384277 14.4287319183
-30.7093696594 57.8025779724 13.5844745636
-31.2822685242 57.9531860352 13.3921089172
-39.9447593689 57.2411231995 18.8235225677
-40.3805503845 57.3099403381 18.8663330078
-41.2481117249 57.4096183777 19.1187896729
-42.0267829895 57.4605255127 19.3060817719
-45.2548332214 57.300163269 15.3032512665
-45.8515319824 55.296207428 16.5180740356
-31.2968330383 57.3656692505 13.3405056
-31.9723968506 57.6350860596 13.0967235565
-33.4291763306 57.6807861328 12.5887241364
-34.1763000488 57.6208496094 12.4250335693
-44.2028160095 58.2173080444 13.4232349396
-44.7748565674 57.2369155884 13.590845108
-36.7534599304 70.5620803833 23.5392494202
-26.8205051422 66.717338562 14.3732814789
-34.0047798157 57.462474823 12.4078655243
-34.6523628235 57.6695823669 12.0592727661
-35.0145759583 57.9923820496 11.1549434662
-42.7605514526 58.0731391907 11.0478458405
-43.7552719116 57.4697227478 11.883184433
-44.5959510803 56.7778282166 12.593662262
-34.4901580811 71.3752441406 16.2813243866
-34.8273010254 58.2598228455 9.95534706116
-34.7582855225 58.6739768982 8.60474777222
-42.5855140686 57.3910942078 10.3234348297
-43.3360099792 56.8837776184 10.8105010986
-35.3240242004 58.8231811523 7.48760700226
-40.8790473938 57.5297431946 8.11163711548
-41.5597915649 57.272064209 9.18583869934
-27.5749931335 71.9387054443 16.1529712677
-37.1473121643 70.2834854126 22.9326725006
-41.0904350281 67.2117156982 16.5983543396
-27.6461410522 72.6380157471 17.0096511841
-32.9368743896 59.529499054 9.29926681519
-36.4003334045 58.5495109558 6.65310573578
-37.5699920654 58.3056182861 6.63054084778
-40.3631820679 57.1775054932 7.4198102951
-27.9734745026 73.3142700195 17.267036438
-29.7567520142 62.0912666321 16.6825675964
-33.0411911011 59.4422492981 8.0940952301
-37.3409500122 57.7334899902 6.52104949951
-38.4934997559 57.4829292297 6.707239151
-39.6511535645 57.0082931519 6.97406101227
-29.830198288 62.3076858521 16.2984008789
-39.3251113892 68.1181716919 15.5394897461
-30.1717567444 57.2328491211 13.5041236877
-35.4358024597 71.6491394043 23.0767364502
-38.7004737854 68.6356887817 18.3545742035
-39.622013092 47.5901908875 10.5021400452
-40.5255241394 48.0158462524 9.55294418335
-45.765838623 53.5765342712 16.0318584442
-27.3667259216 72.4639968872 16.778137207
-40.3638076782 67.6336288452 16.0083789825
-45.7805976868 53.5890884399 14.7356700897
-39.9077949524 47.3656044006 9.58152198792
-45.6907119751 53.5752296448 13.4236488342
-40.7201728821 49.0917167664 8.34690666199
-43.6901664734 52.9316711426 9.68802452087
-44.4857139587 53.6848106384 10.3433589935
-45.0466117859 53.3147087097 11.1183338165
-32.8579902649 72.4320907593 20.0143623352
-42.0373573303 59.8820877075 20.4617805481
-42.6310157776 60.7170410156 21.0613918304
-34.5421829224 50.1499633789 5.90274333954
-35.77684021 49.8992538452 5.95103645325
-37.2122268677 49.6657104492 6.58355045319
-38.7329063416 49.2582702637 7.03158950806
-42.783706665 53.3779220581 8.98338127136
-43.7013702393 53.7463798523 9.62957000732
-41.4224662781 59.3064231873 19.5324859619
-41.8185005188 60.1109275818 19.8496131897
-42.2300605774 60.6018714905 20.3447265625
-40.2208442688 53.9339752197 7.57255077362
-41.2008323669 53.0256767273 7.91262626648
-41.9824676514 52.8957252502 8.327709198
-26.4658527374 68.7721633911 16.9913463593
-28.3868083954 60.5852966309 16.1202163696
-29.4680919647 61.5325126648 16.7799091339
-29.5459499359 61.485168457 16.5378036499
-41.4812469482 59.671710968 19.2790584564
-41.6116142273 60.0424385071 19.4555034637
-32.9364814758 54.7703590393 6.3670167923
-38.9243774414 45.9882545471 7.95254707336
-35.935962677 54.5463905334 5.63094711304
-37.4431724548 54.013507843 5.84249210358
-38.7429924011 53.6052627563 6.46067619324
-39.7779922485 53.2391891479 7.3132390976
-40.3218002319 53.059803009 7.83972072601
-29.6134128571 61.380859375 16.2795829773
-29.6902656555 61.345500946 15.615644455
-33.4566459656 55.7651252747 6.31443023682
-33.9522781372 55.0425071716 6.13532543182
-34.809803009 54.904083252 5.66608142853
-35.3068122864 54.7867279053 5.61028289795
-29.8387336731 61.2352371216 14.7021560669
-41.4142951965 59.4868583679 19.1642189026
-42.0244903564 60.522354126 18.9099788666
-43.1169128418 61.2162857056 18.3969497681
-43.861415863 61.4682426453 17.4691734314
-44.1578674316 61.5000534058 16.3123321533
-30.1953430176 60.9989585876 13.7395915985
[...]
POINT_DATA 933
SCALARS scalars float64
LOOKUP_TABLE scalars
1019.0
1019.0
1019.0
1019.0
1019.0
1019.0
1019.0
1019.0
1019.0
1019.0
1019.0
1019.0
1019.0
1019.0
1019.0
1019.0
1019.0
1019.0
1019.0
1019.0
1019.0
1019.0
1019.0
1019.0
1019.0
1019.0
1019.0
1019.0
1019.0
1019.0
1019.0
1019.0
1019.0
1019.0
1019.0
1019.0
1019.0
1019.0
1019.0
1019.0
1019.0
1019.0
1019.0
1019.0
1019.0
1019.0
1019.0
1019.0
1019.0
1019.0
1019.0
1019.0
1019.0
1019.0
1019.0
1019.0
1019.0
1019.0
1019.0
1019.0
1019.0
1019.0
1019.0
1019.0
1019.0
1019.0
1019.0
1019.0
1019.0
1019.0
1019.0
1019.0
1019.0
1019.0
1019.0
1019.0
1019.0
1019.0
1019.0
1019.0
1019.0
1019.0
1019.0
1019.0
1019.0
1019.0
1019.0
1019.0
1019.0
1019.0
1019.0
1019.0
1019.0
1019.0
1019.0
1019.0
1019.0
1019.0
1019.0
1019.0
1019.0
1019.0
1019.0
1019.0
1019.0
1019.0
1019.0
1019.0
1019.0
1019.0
1019.0
1019.0
1019.0
1019.0
1019.0
1019.0
1019.0
1019.0
1019.0
1019.0
1019.0
1019.0
1019.0
1019.0
1019.0
1019.0
1019.0
1019.0
1019.0
1019.0
1019.0
1019.0
1019.0
1019.0
1019.0
1019.0
1019.0
1019.0
1019.0
1019.0
1019.0
1019.0
1019.0
1019.0
1019.0
1019.0
1019.0
1019.0
1019.0
1019.0
1019.0
1019.0
1019.0
1019.0
1019.0
1019.0
1019.0
1019.0
1019.0
1019.0
1019.0
1019.0
1019.0
1019.0
1019.0
1019.0
1019.0
1019.0
1019.0
1019.0
1019.0
1019.0
1019.0
1019.0
1019.0
1019.0
1019.0
1019.0
1019.0
1019.0
1019.0
1019.0
1019.0
1019.0
1019.0
1019.0
1019.0
1019.0
1019.0
1019.0
1019.0
1019.0
1019.0
1019.0
1019.0
1019.0
1019.0
1019.0
1019.0
1019.0
1019.0
1019.0
1019.0
1019.0
1019.0
1019.0
1019.0
1019.0
1019.0
1019.0
1019.0
1019.0
1019.0
1019.0
1019.0
1019.0
1019.0
1019.0
1019.0
1019.0
1019.0
1019.0
1019.0
1019.0
1019.0
1019.0
1019.0
1019.0
1019.0
1019.0
1019.0
1019.0
1019.0
1019.0
1019.0
1019.0
1019.0
1019.0
1019.0
1019.0
1019.0
1019.0
1019.0
1019.0
1019.0
1019.0
1019.0
1019.0
1019.0
1019.0
1019.0
1019.0
1019.0
1019.0
1019.0
1019.0
1019.0
1019.0
1019.0
1019.0
1019.0
1019.0
1019.0
1019.0
1019.0
1019.0
1019.0
1019.0
1019.0
1019.0
1019.0
1019.0
1019.0
1019.0
1019.0
1019.0
1019.0
1019.0
1019.0
1019.0
1019.0
1019.0
1019.0
1019.0
1019.0
1019.0
1019.0
1019.0
1019.0
1019.0
1019.0
1019.0
1019.0
1019.0
1019.0
1019.0
1019.0
1019.0
1019.0
1019.0
1019.0
1019.0
1019.0
1019.0
1019.0
1019.0
1019.0
1019.0
1019.0
1019.0
1019.0
1019.0
1019.0
1019.0
1019.0
1019.0
1019.0
1019.0
1019.0
1019.0
1019.0
1019.0
1019.0
1019.0
1019.0
1019.0
1019.0
1019.0
1019.0
1019.0
1019.0
1019.0
1019.0
1019.0
1019.0
1019.0
1019.0
1019.0
1019.0
1019.0
1019.0
1019.0
1019.0
1019.0
1019.0
1019.0
1019.0
1019.0
1019.0
1019.0
1019.0
1019.0
1019.0
1019.0
1019.0
1019.0
1019.0
1019.0
1019.0
1019.0
1019.0
1019.0
1019.0
1019.0
1019.0
1019.0
1019.0
1019.0
1019.0
1019.0
1019.0
1019.0
1019.0
1019.0
1019.0
1019.0
1019.0
1019.0
1019.0
1019.0
1019.0
1019.0
1019.0
1019.0
1019.0
1019.0
1019.0
1019.0
1019.0
1019.0
1019.0
1019.0
1019.0
1019.0
1019.0
1019.0
1019.0
1019.0
1019.0
1019.0
1019.0
1019.0
1019.0
1019.0
1019.0
1019.0
1019.0
1019.0
1019.0
1019.0
1019.0
1019.0
1019.0
1019.0
1019.0
1019.0
1019.0
1019.0
1019.0
1019.0
1019.0
1019.0
1019.0
1019.0
1019.0
1019.0
1019.0
1019.0
1019.0
1019.0
1019.0
1019.0
1019.0
1019.0
1019.0
1019.0
1019.0
1019.0
1019.0
1019.0
1019.0
1019.0
1019.0
1019.0
1019.0
1019.0
1019.0
1019.0
1019.0
1019.0
1019.0
1019.0
1019.0
1019.0
1019.0
1019.0
1019.0
1019.0
1019.0
1019.0
1019.0
1019.0
1019.0
1019.0
1019.0
1019.0
1019.0
1019.0
1019.0
1019.0
1019.0
1019.0
1019.0
1019.0
1019.0
1019.0
1019.0
1019.0
1019.0
1019.0
1019.0
1019.0
1019.0
1019.0
1019.0
1019.0
1019.0
1019.0
1019.0
1019.0
1019.0
1019.0
1019.0
1019.0
1019.0
1019.0
1019.0
1019.0
1019.0
1019.0
1019.0
1019.0
1019.0
1019.0
1019.0
1019.0
1019.0
1019.0
1019.0
1019.0
1019.0
1019.0
1019.0
1019.0
1019.0
1019.0
1019.0
1019.0
1019.0
1019.0
1019.0
1019.0
1019.0
1019.0
1019.0
1019.0
1019.0
1019.0
1019.0
1019.0
1019.0
1019.0
1019.0
1019.0
1019.0
1019.0
1019.0
1019.0
1019.0
1019.0
1019.0
1019.0
1019.0
1019.0
1019.0
1019.0
1019.0
1019.0
1019.0
1019.0
1019.0
1019.0
1019.0
1019.0
1019.0
1019.0
1019.0
1019.0
1019.0
1019.0
1019.0
1019.0
1019.0
1019.0
1019.0
1019.0
1019.0
1019.0
1019.0
1019.0
1019.0
1019.0
1019.0
1019.0
1019.0
1019.0
1019.0
1019.0
1019.0
1019.0
1019.0
1019.0
1019.0
1019.0
1019.0
1019.0
1019.0
1019.0
1019.0
1019.0
1019.0
1019.0
1019.0
1019.0
1019.0
1019.0
1019.0
1019.0
1019.0
1019.0
1019.0
1019.0
1019.0
1019.0
1019.0
1019.0
1019.0
1019.0
1019.0
1019.0
1019.0
1019.0
1019.0
1019.0
1019.0
1019.0
1019.0
1019.0
1019.0
1019.0
1019.0
1019.0
1019.0
1019.0
1019.0
1019.0
1019.0
1019.0
1019.0
1019.0
1019.0
1019.0
1019.0
1019.0
1019.0
1019.0
1019.0
1019.0
1019.0
1019.0
1019.0
1019.0
1019.0
1019.0
1019.0
1019.0
1019.0
1019.0
1019.0
1019.0
1019.0
1019.0
1019.0
1019.0
1019.0
1019.0
1019.0
1019.0
1019.0
1019.0
1019.0
1019.0
1019.0
1019.0
1019.0
1019.0
1019.0
1019.0
1019.0
1019.0
1019.0
1019.0
1019.0
1019.0
1019.0
1019.0
1019.0
1019.0
1019.0
1019.0
1019.0
1019.0
1019.0
1019.0
1019.0
1019.0
1019.0
1019.0
1019.0
1019.0
1019.0
1019.0
1019.0
1019.0
1019.0
1019.0
1019.0
1019.0
1019.0
1019.0
1019.0
1019.0
1019.0
1019.0
1019.0
1019.0
1019.0
1019.0
1019.0
1019.0
1019.0
1019.0
1019.0
1019.0
1019.0
1019.0
1019.0
1019.0
1019.0
1019.0
1019.0
1019.0
1019.0
1019.0
1019.0
1019.0
1019.0
1019.0
1019.0
1019.0
1019.0
1019.0
1019.0
1019.0
1019.0
1019.0
1019.0
1019.0
1019.0
1019.0
1019.0
1019.0
1019.0
1019.0
1019.0
1019.0
1019.0
1019.0
1019.0
1019.0
1019.0
1019.0
1019.0
1019.0
1019.0
1019.0
1019.0
1019.0
1019.0
1019.0
1019.0
1019.0
1019.0
1019.0
1019.0
1019.0
1019.0
1019.0
1019.0
1019.0
1019.0
1019.0
1019.0
1019.0
1019.0
1019.0
1019.0
1019.0
1019.0
1019.0
1019.0
1019.0
1019.0
1019.0
1019.0
1019.0
1019.0
1019.0
1019.0
1019.0
1019.0
1019.0
1019.0
1019.0
1019.0
1019.0
1019.0
1019.0
1019.0
1019.0
1019.0
1019.0
1019.0
1019.0
1019.0
1019.0
1019.0
1019.0
1019.0
1019.0
1019.0
1019.0
1019.0
1019.0
1019.0
1019.0
1019.0
1019.0
1019.0
1019.0
1019.0
1019.0
1019.0
1019.0
1019.0
1019.0
1019.0
1019.0
1019.0
1019.0
1019.0
1019.0
1019.0
1019.0
1019.0
1019.0
1019.0
1019.0
1019.0
1019.0
1019.0
1019.0
1019.0
1019.0
1019.0
1019.0
1019.0
1019.0
1019.0
1019.0
1019.0
1019.0
1019.0
1019.0
1019.0
1019.0
1019.0
1019.0
1019.0
1019.0
1019.0
1019.0
1019.0
1019.0
1019.0
1019.0
1019.0
1019.0
1019.0
1019.0
1019.0
1019.0
1019.0
1019.0
1019.0
1019.0
1019.0
1019.0
1019.0
1019.0
1019.0
1019.0
1019.0
1019.0
1019.0
1019.0
1019.0
1019.0
1019.0
1019.0
1019.0
1019.0
1019.0
1019.0
1019.0
1019.0
1019.0
1019.0
1019.0
1019.0
1019.0
1019.0
1019.0
1019.0
1019.0
1019.0
1019.0
1019.0
1019.0
1019.0
1019.0
1019.0
1019.0
1019.0
1019.0
1019.0
1019.0
1019.0
1019.0
1019.0
1019.0
1019.0
1019.0
1019.0
1019.0
1019.0
1019.0
1019.0
1019.0
1019.0
1019.0
1019.0
1019.0

