# vtk DataFile Version 2.0
Generated by Mindboggle (www.mindboggle.info)
ASCII
DATASET POLYDATA
POINTS 801 float
-29.1906147003 -6.1140422821 8.0469083786
-29.4811153412 -5.60742378235 7.59253501892
-35.2926712036 -6.35398101807 8.70364570618
-35.8232498169 -6.50202941895 8.39247322083
-36.5465774536 -6.39965438843 8.10837936401
-37.223991394 -6.1367855072 7.91854000092
-44.1357650757 -10.6000061035 7.48813819885
-44.6093292236 -10.3574523926 8.02015781403
-45.23960495 -9.69473266602 8.27225112915
-45.4078483582 -4.64637899399 11.5237922668
-47.7117271423 -2.66577649117 11.5234069824
-38.5351028442 5.42657613754 7.46412086487
-35.7142753601 4.5261797905 4.49110221863
-45.8663330078 -4.6491484642 11.5693664551
-44.1119995117 -2.35391354561 10.5194473267
-44.8697662354 -1.73956036568 10.7626743317
-28.9267997742 -5.80537605286 6.49180793762
-29.1714000702 -5.84887123108 6.99760437012
-29.5185031891 -5.26172208786 6.78793144226
-44.0658836365 -10.6750297546 7.17069339752
-44.7729263306 -10.2645797729 7.20571899414
-32.5151290894 -1.14994728565 7.71167469025
-30.8303337097 -11.8579034805 11.6710147858
-31.3958969116 -12.2007379532 11.7296943665
-31.9097671509 -12.6184740067 11.5590934753
-36.5514221191 -1.30160832405 8.58200836182
-43.3024253845 -2.20758748055 9.81277656555
-43.6396102905 -1.43516647816 9.65143966675
-29.3177280426 -5.39752721786 6.13979053497
-29.5137786865 -5.18493795395 6.19833374023
-29.5854492188 -4.92960119247 6.34095954895
-29.2429847717 -11.4025802612 10.5586833954
-30.2163162231 -11.5557098389 11.0944347382
-31.0597953796 -11.4314422607 11.6100273132
-32.3072509766 -12.1903734207 11.4053001404
-33.4286499023 -12.1494874954 10.8883972168
-34.3034896851 -12.3566980362 10.4175243378
-37.1651878357 3.86699819565 7.2748041153
-45.2894439697 -2.88185620308 11.1175956726
-28.5497531891 -11.0337295532 10.0680904388
-35.3256988525 -12.8792543411 9.71270179749
-35.7763938904 -12.5795907974 9.62004852295
-46.4759597778 -2.93407559395 11.4191703796
-31.9091377258 -0.669518589973 6.22278404236
-38.573009491 -2.33044362068 8.2724571228
-39.1032409668 -2.11625599861 7.82495975494
-35.8385162354 -13.6316537857 9.0631275177
-36.2267189026 -13.2900209427 9.15257453918
-37.0110168457 -13.5718393326 8.49118804932
-37.717086792 -13.4171571732 8.53429794312
-38.2271957397 -13.2828378677 8.63567352295
-31.5477256775 -0.503527760506 4.93716621399
-31.941280365 0.0429467782378 4.08998775482
-39.6722145081 -2.39690899849 7.29572582245
-40.0787467957 -2.4757168293 6.86089229584
-40.6687850952 -2.32477879524 6.75584983826
-41.2544898987 -1.86263775826 6.62400722504
-37.2061271667 -13.8860406876 7.89388656616
-37.6556053162 -13.8400583267 7.67378330231
-38.3468208313 -13.5029115677 8.0056810379
-31.6695709229 -0.387566655874 3.8454990387
-32.3834075928 0.0390977524221 3.12988853455
-37.835773468 -14.0586481094 6.70941352844
-38.4294433594 -13.8092050552 7.07502841949
-43.6041793823 -2.4706966877 10.167974472
-37.8993225098 7.17589759827 4.30143165588
-36.2312965393 -14.2188005447 4.69338989258
-36.946647644 -14.2871713638 5.15497016907
-37.7475166321 -14.0870790482 5.68030929565
-38.3868980408 -13.8633584976 6.23149013519
-42.093082428 3.01923680305 8.42953681946
-36.9146385193 -13.9406709671 4.23030757904
-37.5399246216 -14.0665369034 4.71254634857
-45.5498657227 0.169302970171 10.2938480377
-46.3421859741 0.619862616062 10.297410965
-42.8432350159 3.21775197983 8.23322486877
-33.9071159363 0.551804602146 7.07338523865
-34.9109535217 0.514758169651 7.50769805908
-35.9346313477 0.489722281694 8.00122737885
-36.9994010925 0.383296042681 8.37261772156
-38.1488685608 0.162316322327 8.38109588623
-38.9295082092 0.286837607622 8.30362701416
-44.6242256165 0.185915976763 8.73493385315
-45.4235992432 0.749825596809 9.10054588318
-46.613697052 1.51244854927 9.03201293945
-38.0522384644 7.20799255371 3.46160697937
-33.0755882263 -1.08425056934 7.62598800659
-33.5173034668 1.48163712025 6.0472240448
-34.2826499939 -1.27414822578 7.9921245575
-39.8563079834 -0.234789893031 7.94434642792
-31.4604988098 -2.98825216293 8.23672676086
-44.658744812 0.752152562141 7.18725013733
-45.6060066223 1.48673939705 7.48187541962
-46.3889846802 2.18705868721 7.55949115753
-35.6288948059 -1.50277066231 8.43960952759
-33.4141921997 1.82673382759 4.97267913818
-40.8171730042 -0.807374119759 7.30391407013
-41.2977256775 -0.192410498857 7.35660362244
-43.6660461426 0.428607046604 5.41577625275
-44.2978782654 0.905953526497 5.42937088013
-44.9696464539 1.51596951485 5.86655712128
-45.6872024536 2.06120419502 6.36763095856
-33.3792495728 1.79912292957 3.99932956696
-33.8405380249 2.1984474659 3.48920536041
-41.0953330994 -1.20613586903 6.76480484009
-41.6719360352 -0.619372427464 6.60071086884
-42.4515686035 -0.219216376543 5.82866954803
-42.7186470032 0.0664072036743 5.62638950348
-43.2366638184 0.329165488482 5.25202941895
-43.7549209595 0.799553990364 4.98421287537
-44.9972038269 1.73931622505 5.31138134003
-45.2212181091 1.93894505501 5.53458023071
-33.1759147644 1.42788231373 3.30296802521
-33.9087944031 1.88716244698 2.80338478088
-34.5219802856 2.21871495247 2.43655109406
-42.6077766418 -0.0667085796595 5.48933029175
-42.6292037964 -0.0564756505191 5.36342716217
-34.1407356262 1.53632080555 2.216173172
-32.4549865723 -0.961222827435 7.14080142975
-32.835193634 -0.396199315786 7.07786464691
-43.8347663879 -11.0054016113 6.59489822388
-37.6722679138 -1.89132237434 8.75676345825
-38.5039978027 -1.71477246284 8.54978179932
-42.27293396 -2.13192677498 7.61734771729
-42.8205566406 -1.86106038094 8.15033340454
-43.5839538574 -0.987044453621 8.38879203796
-35.5949859619 2.10216450691 7.18578338623
-36.3494033813 2.19760632515 7.54490280151
-37.3174591064 2.0577442646 8.15363693237
-38.273639679 1.96970868111 8.33846855164
-39.2472114563 1.89373517036 8.43284797668
-40.3468780518 1.74062275887 8.37156486511
-40.6501235962 2.15981030464 8.36817741394
-34.484172821 2.5027821064 6.02417373657
-34.9904785156 2.55402112007 6.42022132874
-35.6394882202 2.6214993 6.84619522095
-40.977104187 1.28266632557 8.01823329926
-41.3119659424 1.61391758919 8.00648403168
-34.2412414551 2.51229977608 5.67278862
-34.5603599548 2.98365712166 5.29617023468
-34.8635749817 3.54676580429 4.93223381042
-42.3936538696 0.352616339922 6.34914779663
-42.4820823669 1.03238022327 7.10736465454
-42.8677520752 1.51966965199 6.83105373383
-32.1244926453 -14.6023988724 11.5692996979
-32.633480072 -14.5750398636 11.3326663971
-38.5476608276 3.51220846176 8.17691993713
-39.2155838013 3.53952550888 8.34261322021
-40.0149726868 3.58018064499 8.55563735962
-34.4033851624 2.9794857502 4.49083423615
-34.8336257935 3.52482748032 4.09474658966
-35.4147720337 4.04890584946 3.67324066162
-42.4056892395 0.287625342607 5.88284683228
-42.7230072021 0.537409842014 5.98836231232
-32.5673179626 -15.3872156143 11.0590896606
-33.118270874 -15.2084741592 10.6862220764
-33.922870636 -14.936589241 10.4310932159
-34.3484420776 -14.8494462967 10.2810134888
-46.2046089172 3.22675848007 5.49698543549
-36.7807693481 4.32029867172 6.7788105011
-37.0814399719 5.08823156357 6.42706775665
-43.7512054443 2.70659184456 7.05185317993
-33.5654144287 -15.8186311722 9.47396469116
-33.9648475647 -15.46413517 9.75220108032
-34.4177818298 -15.1231508255 9.83620643616
-34.8683319092 3.29073095322 3.28571033478
-35.3857574463 3.82124662399 2.79201126099
-34.083782196 -15.6776208878 8.75265693665
-34.4438438416 -15.4162912369 8.99735832214
-44.856502533 3.24515485764 5.79577445984
-45.6115684509 3.62297010422 5.39811325073
-35.4266014099 3.42156362534 2.08766841888
-34.4037132263 -15.4964914322 8.3115978241
-36.5663108826 5.68991613388 3.62618732452
-37.2068023682 6.28492736816 3.1648607254
-34.1566314697 2.80609440804 4.71337413788
-41.2304039001 -2.23651051521 6.76656532288
-41.8786125183 -2.00950360298 7.09662628174
-44.3758773804 3.24147748947 7.02451229095
-42.666885376 -1.13657486439 6.76644134521
-42.6668930054 6.68001937866 9.56765556335
-46.3251724243 -4.5341258049 11.6043720245
-39.1119651794 5.38078832626 7.91826915741
-39.6970596313 5.92313146591 8.22102928162
-36.0397872925 4.33256101608 2.20839118958
-42.3125457764 6.27562332153 9.53776741028
-43.8550300598 5.62396383286 9.34435081482
-44.9473152161 5.56269025803 8.86783981323
-38.107875824 5.79135656357 6.85862827301
-38.6373786926 6.23168182373 7.12510967255
-39.16173172 6.85870170593 7.40943717957
-44.904750824 4.71835851669 8.2011756897
-40.0291213989 1.10879433155 8.30763244629
-42.094367981 -1.08273804188 6.39332199097
-37.9960136414 6.26749038696 6.35252571106
-38.1605110168 6.89821624756 5.91147518158
-38.3859710693 7.5464553833 5.39500331879
-45.5688056946 4.44689702988 7.22467517853
-42.6311035156 -0.610724508762 6.06418895721
-45.6957817078 -3.34273862839 11.357509613
-45.7029762268 -5.18180036545 11.5825634003
-46.1208000183 -5.22172307968 11.6173667908
-38.8629798889 8.40543937683 3.950963974
-42.6331481934 -6.16020774841 10.6676216125
-43.2952308655 -5.85980939865 10.894493103
-44.4506263733 -5.97837781906 11.4642391205
-45.5058441162 -5.94478178024 11.5443344116
-46.4900131226 -5.91877317429 11.4374694824
-47.1106567383 -5.80367994308 11.3237438202
-38.6153945923 7.85928916931 3.58331775665
-31.1837501526 -4.30907964706 8.99575424194
-31.6610336304 -4.3661532402 9.37039375305
-32.5023269653 -4.84086561203 9.27748298645
-40.1887588501 -4.9613699913 9.62101173401
-41.1178474426 -5.21006345749 9.55635070801
-41.9235954285 -5.32858991623 9.90663719177
-42.6152801514 -5.54514455795 10.3659038544
-47.0638275146 -7.86546707153 9.68983650208
-47.1962203979 -6.86245727539 10.5396442413
-47.1403656006 -6.12090682983 11.0487041473
-45.9797821045 -3.38459539413 11.4128608704
-39.6307754517 8.26038360596 6.46204376221
-30.8045883179 -3.94735860825 8.42956161499
-30.1827754974 -9.63793182373 10.5744495392
-30.7496833801 -9.62635421753 10.8527374268
-31.7216377258 -9.57314300537 10.9744987488
-32.8377876282 -9.98067855835 10.7447490692
[...]
POINT_DATA 801
SCALARS scalars float64
LOOKUP_TABLE scalars
1034.0
1034.0
1034.0
1034.0
1034.0
1034.0
1034.0
1034.0
1034.0
1034.0
1034.0
1034.0
1034.0
1034.0
1034.0
1034.0
1034.0
1034.0
1034.0
1034.0
1034.0
1034.0
1034.0
1034.0
1034.0
1034.0
1034.0
1034.0
1034.0
1034.0
1034.0
1034.0
1034.0
1034.0
1034.0
1034.0
1034.0
1034.0
1034.0
1034.0
1034.0
1034.0
1034.0
1034.0
1034.0
1034.0
1034.0
1034.0
1034.0
1034.0
1034.0
1034.0
1034.0
1034.0
1034.0
1034.0
1034.0
1034.0
1034.0
1034.0
1034.0
1034.0
1034.0
1034.0
1034.0
1034.0
1034.0
1034.0
1034.0
1034.0
1034.0
1034.0
1034.0
1034.0
1034.0
1034.0
1034.0
1034.0
1034.0
1034.0
1034.0
1034.0
1034.0
1034.0
1034.0
1034.0
1034.0
1034.0
1034.0
1034.0
1034.0
1034.0
1034.0
1034.0
1034.0
1034.0
1034.0
1034.0
1034.0
1034.0
1034.0
1034.0
1034.0
1034.0
1034.0
1034.0
1034.0
1034.0
1034.0
1034.0
1034.0
1034.0
1034.0
1034.0
1034.0
1034.0
1034.0
1034.0
1034.0
1034.0
1034.0
1034.0
1034.0
1034.0
1034.0
1034.0
1034.0
1034.0
1034.0
1034.0
1034.0
1034.0
1034.0
1034.0
1034.0
1034.0
1034.0
1034.0
1034.0
1034.0
1034.0
1034.0
1034.0
1034.0
1034.0
1034.0
1034.0
1034.0
1034.0
1034.0
1034.0
1034.0
1034.0
1034.0
1034.0
1034.0
1034.0
1034.0
1034.0
1034.0
1034.0
1034.0
1034.0
1034.0
1034.0
1034.0
1034.0
1034.0
1034.0
1034.0
1034.0
1034.0
1034.0
1034.0
1034.0
1034.0
1034.0
1034.0
1034.0
1034.0
1034.0
1034.0
1034.0
1034.0
1034.0
1034.0
1034.0
1034.0
1034.0
1034.0
1034.0
1034.0
1034.0
1034.0
1034.0
1034.0
1034.0
1034.0
1034.0
1034.0
1034.0
1034.0
1034.0
1034.0
1034.0
1034.0
1034.0
1034.0
1034.0
1034.0
1034.0
1034.0
1034.0
1034.0
1034.0
1034.0
1034.0
1034.0
1034.0
1034.0
1034.0
1034.0
1034.0
1034.0
1034.0
1034.0
1034.0
1034.0
1034.0
1034.0
1034.0
1034.0
1034.0
1034.0
1034.0
1034.0
1034.0
1034.0
1034.0
1034.0
1034.0
1034.0
1034.0
1034.0
1034.0
1034.0
1034.0
1034.0
1034.0
1034.0
1034.0
1034.0
1034.0
1034.0
1034.0
1034.0
1034.0
1034.0
1034.0
1034.0
1034.0
1034.0
1034.0
1034.0
1034.0
1034.0
1034.0
1034.0
1034.0
1034.0
1034.0
1034.0
1034.0
1034.0
1034.0
1034.0
1034.0
1034.0
1034.0
1034.0
1034.0
1034.0
1034.0
1034.0
1034.0
1034.0
1034.0
1034.0
1034.0
1034.0
1034.0
1034.0
1034.0
1034.0
1034.0
1034.0
1034.0
1034.0
1034.0
1034.0
1034.0
1034.0
1034.0
1034.0
1034.0
1034.0
1034.0
1034.0
1034.0
1034.0
1034.0
1034.0
1034.0
1034.0
1034.0
1034.0
1034.0
1034.0
1034.0
1034.0
1034.0
1034.0
1034.0
1034.0
1034.0
1034.0
1034.0
1034.0
1034.0
1034.0
1034.0
1034.0
1034.0
1034.0
1034.0
1034.0
1034.0
1034.0
1034.0
1034.0
1034.0
1034.0
1034.0
1034.0
1034.0
1034.0
1034.0
1034.0
1034.0
1034.0
1034.0
1034.0
1034.0
1034.0
1034.0
1034.0
1034.0
1034.0
1034.0
1034.0
1034.0
1034.0
1034.0
1034.0
1034.0
1034.0
1034.0
1034.0
1034.0
1034.0
1034.0
1034.0
1034.0
1034.0
1034.0
1034.0
1034.0
1034.0
1034.0
1034.0
1034.0
1034.0
1034.0
1034.0
1034.0
1034.0
1034.0
1034.0
1034.0
1034.0
1034.0
1034.0
1034.0
1034.0
1034.0
1034.0
1034.0
1034.0
1034.0
1034.0
1034.0
1034.0
1034.0
1034.0
1034.0
1034.0
1034.0
1034.0
1034.0
1034.0
1034.0
1034.0
1034.0
1034.0
1034.0
1034.0
1034.0
1034.0
1034.0
1034.0
1034.0
1034.0
1034.0
1034.0
1034.0
1034.0
1034.0
1034.0
1034.0
1034.0
1034.0
1034.0
1034.0
1034.0
1034.0
1034.0
1034.0
1034.0
1034.0
1034.0
1034.0
1034.0
1034.0
1034.0
1034.0
1034.0
1034.0
1034.0
1034.0
1034.0
1034.0
1034.0
1034.0
1034.0
1034.0
1034.0
1034.0
1034.0
1034.0
1034.0
1034.0
1034.0
1034.0
1034.0
1034.0
1034.0
1034.0
1034.0
1034.0
1034.0
1034.0
1034.0
1034.0
1034.0
1034.0
1034.0
1034.0
1034.0
1034.0
1034.0
1034.0
1034.0
1034.0
1034.0
1034.0
1034.0
1034.0
1034.0
1034.0
1034.0
1034.0
1034.0
1034.0
1034.0
1034.0
1034.0
1034.0
1034.0
1034.0
1034.0
1034.0
1034.0
1034.0
1034.0
1034.0
1034.0
1034.0
1034.0
1034.0
1034.0
1034.0
1034.0
1034.0
1034.0
1034.0
1034.0
1034.0
1034.0
1034.0
1034.0
1034.0
1034.0
1034.0
1034.0
1034.0
1034.0
1034.0
1034.0
1034.0
1034.0
1034.0
1034.0
1034.0
1034.0
1034.0
1034.0
1034.0
1034.0
1034.0
1034.0
1034.0
1034.0
1034.0
1034.0
1034.0
1034.0
1034.0
1034.0
1034.0
1034.0
1034.0
1034.0
1034.0
1034.0
1034.0
1034.0
1034.0
1034.0
1034.0
1034.0
1034.0
1034.0
1034.0
1034.0
1034.0
1034.0
1034.0
1034.0
1034.0
1034.0
1034.0
1034.0
1034.0
1034.0
1034.0
1034.0
1034.0
1034.0
1034.0
1034.0
1034.0
1034.0
1034.0
1034.0
1034.0
1034.0
1034.0
1034.0
1034.0
1034.0
1034.0
1034.0
1034.0
1034.0
1034.0
1034.0
1034.0
1034.0
1034.0
1034.0
1034.0
1034.0
1034.0
1034.0
1034.0
1034.0
1034.0
1034.0
1034.0
1034.0
1034.0
1034.0
1034.0
1034.0
1034.0
1034.0
1034.0
1034.0
1034.0
1034.0
1034.0
1034.0
1034.0
1034.0
1034.0
1034.0
1034.0
1034.0
1034.0
1034.0
1034.0
1034.0
1034.0
1034.0
1034.0
1034.0
1034.0
1034.0
1034.0
1034.0
1034.0
1034.0
1034.0
1034.0
1034.0
1034.0
1034.0
1034.0
1034.0
1034.0
1034.0
1034.0
1034.0
1034.0
1034.0
1034.0
1034.0
1034.0
1034.0
1034.0
1034.0
1034.0
1034.0
1034.0
1034.0
1034.0
1034.0
1034.0
1034.0
1034.0
1034.0
1034.0
1034.0
1034.0
1034.0
1034.0
1034.0
1034.0
1034.0
1034.0
1034.0
1034.0
1034.0
1034.0
1034.0
1034.0
1034.0
1034.0
1034.0
1034.0
1034.0
1034.0
1034.0
1034.0
1034.0
1034.0
1034.0
1034.0
1034.0
1034.0
1034.0
1034.0
1034.0
1034.0
1034.0
1034.0
1034.0
1034.0
1034.0
1034.0
1034.0
1034.0
1034.0
1034.0
1034.0
1034.0
1034.0
1034.0
1034.0
1034.0
1034.0
1034.0
1034.0
1034.0
1034.0
1034.0
1034.0
1034.0
1034.0
1034.0
1034.0
1034.0
1034.0
1034.0
1034.0
1034.0
1034.0
1034.0
1034.0
1034.0
1034.0
1034.0
1034.0
1034.0
1034.0
1034.0
1034.0
1034.0
1034.0
1034.0
1034.0
1034.0
1034.0
1034.0
1034.0
1034.0
1034.0
1034.0
1034.0
1034.0
1034.0
1034.0
1034.0
1034.0
1034.0
1034.0
1034.0
1034.0
1034.0
1034.0
1034.0
1034.0
1034.0
1034.0
1034.0
1034.0
1034.0
1034.0
1034.0
1034.0
1034.0
1034.0
1034.0
1034.0
1034.0
1034.0
1034.0
1034.0
1034.0
1034.0
1034.0
1034.0
1034.0
1034.0
1034.0
1034.0
1034.0
1034.0
1034.0
1034.0
1034.0

