# vtk DataFile Version 2.0
Generated by Mindboggle (www.mindboggle.info)
ASCII
DATASET POLYDATA
POINTS 249 float
-1.76943647861 88.9721679688 22.2474269867
-3.52564811707 88.7278060913 22.6261940002
-4.5062122345 88.5551376343 22.4408988953
-0.323918938637 88.5174942017 21.1917724609
-1.3132815361 88.5598526001 21.1438426971
-2.82471418381 88.6571578979 21.2768745422
-4.29691648483 88.6149978638 21.6250858307
0.512161672115 86.71043396 31.6052856445
-0.518418371677 84.5244064331 16.9155483246
-1.07610273361 87.1612167358 31.6190757751
-0.0395673885942 85.0630187988 15.9938106537
-2.84752655029 89.0366134644 28.321395874
2.86567282677 84.3588867188 15.3159923553
-6.47147607803 85.5961151123 25.029712677
-3.32894420624 88.3268127441 30.3822288513
-5.07587718964 88.5056991577 30.1724319458
-6.24168205261 88.347076416 29.3694076538
-4.5338973999 88.8376541138 27.7778129578
-0.0907760709524 87.6040802002 29.4848213196
-3.61852455139 89.2261657715 27.1307296753
-1.79930078983 87.8277816772 18.7914886475
2.47934389114 83.8260192871 33.2938919067
1.76958346367 84.2473297119 34.2635726929
3.43636918068 79.0419235229 33.5858268738
2.73661255836 83.3871688843 32.0222167969
2.52813744545 82.5318984985 31.1894645691
-0.910595834255 84.8779525757 34.8142814636
-2.30170083046 84.7497329712 34.5998802185
-3.60125231743 84.4787368774 34.1553497314
2.58917808533 83.9152450562 31.7245788574
2.43027615547 82.9685592651 30.8607749939
1.9835652113 81.8664245605 30.0052261353
-4.64114093781 84.2554550171 33.7788085938
-5.54319190979 84.6683120728 33.4527168274
-6.89351797104 84.857170105 33.023525238
-8.28913593292 84.9824066162 32.5131034851
2.60150265694 83.4203567505 30.5020751953
2.32065987587 82.4837875366 29.8561248779
-0.825262010098 89.3388061523 25.6752929688
2.91659617424 83.5699920654 28.8694000244
2.68740916252 82.6114196777 29.1682090759
3.01200461388 83.2227630615 28.0059967041
2.89747881889 82.4261245728 28.4711685181
3.50876808167 81.0322952271 34.6248474121
2.83427667618 81.8882980347 35.3263893127
1.4204031229 82.9547424316 35.7162132263
2.70292782784 83.6516342163 25.9417114258
-6.98814153671 85.31275177 25.3402481079
3.71337389946 81.0475616455 33.6024627686
1.03401458263 83.4044570923 35.4641113281
-0.124183423817 83.4271774292 35.5557632446
-6.70288801193 85.4322357178 25.1463050842
3.67034983635 81.0920181274 32.6868247986
3.40280032158 81.0532226562 31.6666908264
2.63289856911 80.7688217163 30.7811660767
0.100435845554 85.2199172974 17.3467121124
-0.521850883961 84.863067627 17.3881874084
-1.49013638496 84.4571685791 17.5893917084
4.10864162445 83.6106719971 18.3803272247
1.45987176895 85.5467758179 17.0153713226
0.537655830383 85.3204040527 17.0853347778
-0.90085208416 84.3416442871 17.3046588898
3.61382985115 83.845916748 17.3816795349
1.59607958794 85.5452880859 16.568447113
0.826071918011 85.3171920776 16.2436199188
3.09728288651 84.0974273682 16.4210300446
1.91980552673 85.3109817505 15.8002796173
1.33023524284 85.3886947632 15.3271923065
2.84692192078 84.4449691772 15.6187400818
2.39793944359 84.9138793945 15.1150913239
1.91579639912 85.185798645 14.6316223145
2.26270985603 84.2724838257 33.2812919617
1.99480605125 84.4977874756 33.5859985352
1.32254862785 84.8720779419 34.1078300476
2.27767300606 84.4156188965 32.9896888733
1.61718249321 85.0559387207 33.508430481
0.444372057915 85.4479827881 34.1242218018
-1.29806518555 85.7705383301 34.2032051086
-2.70105695724 85.4142532349 34.0793800354
2.39552927017 84.4710693359 32.3045196533
2.44300436974 84.6271972656 31.7731781006
-2.32110452652 86.0549163818 33.5872764587
-3.97225832939 85.7644958496 33.5020217896
-5.80008220673 86.1342468262 32.7696380615
-7.45574426651 86.3067626953 32.0475540161
-8.87777519226 86.054069519 31.4752807617
2.62636709213 84.5876922607 30.9566307068
2.73913240433 83.6997528076 30.1889572144
-8.3098783493 86.8477096558 31.0512161255
-9.26397418976 86.686340332 30.3729896545
2.7896270752 84.5358352661 29.8174247742
2.7769370079 83.3357086182 29.7741851807
0.52041721344 84.676940918 34.7916755676
2.6609916687 85.056640625 28.7776451111
-7.47984361649 86.5328598022 26.5015182495
-8.0584487915 86.1598358154 26.4571914673
2.56413602829 85.1557388306 27.6443786621
-6.59778928757 86.5140762329 25.9860153198
-7.22793340683 86.0947113037 26.0218429565
2.4174683094 85.2364654541 26.4903907776
-6.05923700333 86.7343444824 25.558506012
-6.38627672195 86.2739639282 25.6150817871
-6.99067926407 85.559425354 25.5675125122
2.19192481041 85.1876296997 25.3831253052
-5.93762397766 86.7075424194 25.3423576355
-6.18157863617 86.043838501 25.1433181763
2.11826872826 85.1459579468 24.2572250366
-5.86682939529 86.7639541626 25.0227851868
-6.22170591354 86.2611312866 24.7873497009
2.37570285797 85.4404373169 22.2015342712
2.25279021263 85.150604248 22.9217758179
-6.45660829544 86.5965118408 24.4184036255
3.46805644035 84.2557067871 20.9068470001
2.77492046356 84.7897109985 21.8262805939
2.29809951782 83.8453903198 22.7515964508
4.07827758789 84.0597686768 18.9850215912
3.78453302383 84.4847717285 19.8520793915
0.390045464039 85.6781616211 17.4429073334
-0.322957873344 85.6812286377 17.5905685425
-1.4035847187 85.6098022461 17.6260604858
-2.55219721794 85.6708602905 17.4856128693
3.59350419044 84.6200866699 17.9463710785
2.28128647804 85.4538269043 17.2486114502
1.47122097015 85.963394165 17.6055545807
3.00456905365 84.572013855 16.8961696625
2.30523228645 84.9857177734 16.3452625275
2.74356293678 84.60521698 16.0026550293
2.44744229317 84.8582077026 15.5931110382
2.6495642662 84.7294998169 15.4517707825
2.53681254387 84.8309707642 15.2649879456
1.96829521656 84.9963150024 32.8840713501
1.33555603027 85.5631561279 33.1168861389
0.0886331051588 86.0909194946 33.3107566833
-1.28291964531 86.3554611206 33.3571853638
2.01694369316 85.2145233154 32.4658660889
1.48881757259 85.9212188721 32.1559295654
-0.408899366856 86.6677627563 32.5467681885
-2.368486166 86.9158401489 32.8096351624
-4.46153306961 87.3078918457 32.2736930847
-6.22944545746 87.2882080078 31.7409973145
-7.41859388351 87.2828598022 31.1226615906
1.87992358208 86.1553268433 30.8916091919
-5.3758058548 87.9889984131 31.2714653015
-6.60190439224 87.9588012695 30.4545135498
-8.17185688019 87.3324050903 29.9681930542
-9.47948741913 86.8425140381 29.2059745789
1.75368368626 86.4165115356 29.7301902771
-7.26448774338 87.7771072388 28.9604721069
-8.51313972473 87.1757278442 28.4350471497
1.45090818405 86.7787475586 28.4908065796
-6.56748819351 87.5537338257 27.0069007874
-7.23353815079 87.2292785645 27.2061805725
-8.85743236542 86.5343322754 27.2217254639
1.39856553078 86.9877853394 27.2177352905
-5.76529502869 87.7477493286 26.199546814
-6.26846837997 87.2558670044 26.4275054932
-6.90093564987 86.8677749634 26.5279693604
1.55118811131 86.9701309204 25.9850730896
-5.83528184891 87.3837966919 25.7638511658
-6.16501140594 86.9301834106 25.9100189209
1.77442824841 87.048324585 24.7724761963
-5.49866485596 87.6264724731 25.1674156189
1.89164209366 87.1279296875 23.4781227112
-5.51067447662 87.6010284424 24.6186828613
-5.8211607933 87.4543304443 24.2108650208
2.22946357727 86.2438583374 21.7115306854
1.84602248669 87.3849334717 22.152141571
-6.32637739182 87.4085388184 23.8750858307
3.16045975685 85.2433776855 20.4058628082
2.48157262802 86.6105575562 20.2094745636
3.55725288391 79.8996200562 33.8809509277
3.50355172157 79.3868865967 33.1169319153
3.54421591759 84.8795089722 18.8277339935
2.982026577 85.7530517578 19.0930728912
1.3309071064 86.5923309326 18.2479972839
-0.288514614105 86.6587524414 18.0686168671
-1.52316617966 86.9089202881 17.9378128052
-2.84396028519 87.1650695801 17.7590675354
3.73623180389 80.2632980347 33.0253105164
3.49654626846 79.6485443115 32.0816726685
3.21523666382 80.0337753296 31.0191841125
3.05036497116 85.4312286377 18.2012996674
3.0885310173 81.8218002319 34.7557182312
2.6192278862 82.5353469849 34.9561233521
1.83197331429 83.2671051025 35.1839981079
3.19335389137 81.9049835205 34.2235183716
2.64755749702 83.1386489868 34.2125740051
1.03459334373 83.8674163818 35.15259552
-0.926005780697 83.9126968384 35.2333297729
-2.31719088554 83.2670593262 34.8439292908
-2.86761713028 87.6937103271 31.5394592285
-4.26585960388 88.0927505493 31.2085227966
0.279313653708 87.0137481689 30.6446723938
3.29854393005 81.9232025146 33.4357795715
3.12734246254 82.4094161987 32.6374206543
2.79683589935 82.014289856 31.42445755
-1.93964648247 84.0571212769 34.8965492249
-3.16038608551 83.4280929565 34.4697227478
-2.0943505764 88.4213485718 29.3388595581
-3.91495490074 88.8804016113 29.1952590942
-5.45625352859 88.6188964844 28.7330322266
-6.50306940079 87.9879455566 28.2496795654
-0.787955224514 88.4531555176 27.937877655
2.23380875587 81.6793212891 30.6358566284
1.81195485592 81.2780151367 29.8902359009
-6.11045265198 87.9712753296 27.4976119995
-6.6290640831 87.7736434937 27.6497421265
0.21456810832 88.4242019653 26.5216064453
-5.10011339188 88.4873962402 26.4920692444
-5.58836269379 88.2373962402 27.0135421753
0.670747935772 88.4925308228 25.2861442566
-3.53821897507 89.3269500732 25.2630958557
-4.82385540009 88.623878479 25.5902290344
0.919172525406 88.5266113281 23.977897644
-3.44785070419 89.098526001 24.2902145386
-4.6371383667 88.594833374 24.746887207
0.944629013538 88.5201263428 22.6498908997
-3.45216369629 88.9559860229 23.7173404694
-4.56393432617 88.4487915039 23.6748695374
-5.58550214767 87.9228591919 23.5944137573
1.36824572086 87.5405349731 20.8080387115
0.597272217274 88.3155517578 21.4562282562
-4.552318573 88.4983901978 22.8576984406
-5.69216680527 88.3193435669 22.6594696045
0.855764389038 87.4424591064 19.3967609406
-0.412287980318 88.0869674683 20.1641807556
-2.25643277168 88.4339447021 19.9545249939
-3.86970686913 88.5015487671 20.1235179901
-5.42012023926 88.4996795654 20.7235927582
0.388230025768 87.1111221313 18.6261291504
-0.445509940386 87.4690933228 18.7522373199
2.96642255783 83.3350372314 26.8897781372
-3.33511304855 87.9881210327 18.7805576324
-0.413833647966 89.3132705688 23.0723724365
2.22945284843 85.9884567261 18.0414924622
-2.46142697334 89.2288742065 27.5741691589
-3.35738658905 89.2189178467 27.740562439
-1.29874920845 89.1674575806 26.7133255005
-2.49854016304 89.468963623 26.8488693237
-1.53953254223 87.7359313965 30.5150489807
1.72267007828 86.2046585083 17.9860935211
-2.3051507473 89.6119155884 25.9564857483
-3.68795084953 89.3295974731 26.2237014771
-0.599843144417 89.3809432983 24.4190292358
-2.16192364693 89.5681838989 24.8539619446
-1.77079880238 89.1069641113 27.2660446167
-2.35868525505 89.3652267456 23.5291919708
-3.48487567902 88.9047927856 23.3773479462
-0.307373046875 88.9131774902 21.9133052826
POLYGONS  427 1708
3 23 171 170
3 48 43 170
3 170 171 178
3 179 178 171
3 170 178 48
3 52 48 178
3 178 179 52
3 53 52 179
3 179 180 53
3 54 53 180
3 43 182 44
3 183 44 182
3 43 48 185
3 43 185 182
3 44 183 45
3 184 45 183
3 45 49 50
3 45 184 49
3 187 49 184
3 48 52 193
3 48 193 185
3 49 187 50
3 188 50 187
3 52 53 194
3 52 194 193
3 53 54 195
3 53 195 194
3 54 203 195
3 182 185 183
3 186 183 185
3 183 186 184
3 187 184 186
3 185 193 186
3 194 186 193
3 186 21 22
3 186 22 187
3 186 194 21
3 24 21 194
3 187 22 92
3 187 92 188
3 188 196 189
3 197 189 196
3 188 92 26
3 188 26 196
3 194 195 24
3 25 24 195
3 195 203 25
3 30 25 203
3 196 26 27
3 196 27 197
3 197 27 28
3 203 204 30
3 31 30 204
3 8 61 60
3 8 60 64
3 8 64 10
3 10 64 67
3 12 69 68
3 21 71 72
3 21 72 22
3 21 24 74
3 21 74 71
3 22 72 73
3 22 73 92
3 92 73 76
3 92 76 26
3 24 25 30
3 24 30 29
3 24 29 79
3 24 79 74
3 26 76 77
3 26 77 27
3 27 77 78
3 27 78 28
3 28 78 82
3 28 82 32
3 29 30 80
3 29 80 79
3 30 31 37
3 30 37 36
3 30 36 86
3 30 86 80
3 32 82 33
3 83 33 82
3 33 83 34
3 84 34 83
3 34 84 35
3 85 35 84
3 36 37 87
3 36 87 86
3 37 40 91
3 37 91 87
3 39 40 42
3 39 42 41
3 39 90 40
3 91 40 90
3 39 41 93
3 39 93 90
3 41 231 96
3 41 96 93
3 231 46 99
3 231 99 96
3 46 103 99
3 47 102 101
3 47 101 51
3 105 51 101
3 51 105 13
3 108 13 105
3 121 115 58
3 55 60 56
3 61 56 60
3 55 56 117
3 118 117 56
3 55 117 60
3 123 60 117
3 56 57 118
3 119 118 57
3 58 62 121
3 124 121 62
3 59 63 60
3 64 60 63
3 59 60 122
3 123 122 60
3 59 122 63
3 125 63 122
3 62 65 124
3 126 124 65
3 63 66 64
3 67 64 66
3 63 125 66
3 127 66 125
3 65 68 126
3 128 126 68
3 66 69 67
3 70 67 69
3 66 127 69
3 129 69 127
3 68 69 128
3 129 128 69
3 71 74 72
3 75 72 74
3 72 75 73
3 76 73 75
3 74 130 75
3 131 75 130
3 74 79 130
3 134 130 79
3 75 131 76
3 132 76 131
3 76 132 77
3 133 77 132
3 77 81 78
3 82 78 81
3 77 133 81
3 137 81 133
3 79 80 134
3 135 134 80
3 80 86 135
3 141 135 86
3 81 137 82
3 138 82 137
3 82 138 83
3 139 83 138
3 83 139 84
3 140 84 139
3 84 88 85
3 89 85 88
3 84 140 88
3 144 88 140
3 86 87 90
3 91 90 87
3 86 90 141
3 146 141 90
3 88 144 89
3 145 89 144
3 90 93 146
3 149 146 93
3 93 96 149
3 153 149 96
3 94 98 95
3 94 95 151
3 152 151 95
3 94 151 98
3 156 98 151
3 96 99 153
3 157 153 99
3 97 101 98
3 102 98 101
3 97 98 155
3 156 155 98
3 97 155 101
3 159 101 155
3 99 103 157
3 160 157 103
3 100 104 101
3 105 101 104
3 100 101 158
3 159 158 101
3 100 158 104
3 161 104 158
3 103 106 160
3 162 160 106
3 104 107 105
3 108 105 107
3 104 161 107
3 163 107 161
3 106 110 162
3 166 162 110
3 107 163 108
3 164 108 163
3 108 164 111
3 167 111 164
3 109 110 113
3 114 113 110
3 109 165 110
3 166 110 165
3 109 113 165
3 169 165 113
3 112 168 113
3 169 113 168
3 112 116 168
3 173 168 116
3 115 172 116
3 173 116 172
3 115 121 172
3 181 172 121
3 117 118 174
3 175 174 118
3 117 174 123
3 240 123 174
3 118 119 175
3 176 175 119
3 119 120 176
3 177 176 120
3 121 124 122
3 125 122 124
3 121 122 181
3 234 181 122
3 122 123 234
3 240 234 123
3 124 126 125
3 127 125 126
3 126 128 127
3 129 127 128
3 130 134 131
3 135 131 134
3 131 135 132
3 136 132 135
3 132 136 133
3 137 133 136
3 135 7 136
3 9 136 7
3 135 141 7
3 192 7 141
3 136 9 137
3 190 137 9
3 137 190 138
3 191 138 190
3 138 142 139
3 143 139 142
3 138 191 142
3 15 142 191
3 139 143 140
3 144 140 143
3 141 146 192
3 18 192 146
3 142 15 143
3 16 143 15
3 143 147 144
3 148 144 147
3 143 16 147
3 201 147 16
3 144 148 145
3 146 149 18
3 202 18 149
3 147 151 148
3 152 148 151
3 147 201 151
3 206 151 201
3 149 153 202
3 207 202 153
3 150 155 151
3 156 151 155
3 150 151 205
3 206 205 151
3 150 205 155
3 209 155 205
3 153 157 207
3 210 207 157
3 154 158 155
3 159 155 158
3 154 155 208
3 209 208 155
3 154 208 158
3 212 158 208
3 157 160 210
3 213 210 160
3 158 212 161
3 215 161 212
3 160 162 213
3 216 213 162
3 161 215 163
3 218 163 215
3 162 166 216
3 221 216 166
3 163 218 164
3 219 164 218
3 164 219 167
3 223 167 219
3 165 220 166
3 221 166 220
3 165 169 220
3 224 220 169
3 168 173 169
3 174 169 173
3 169 174 224
3 229 224 174
3 172 181 173
3 234 173 181
3 173 234 174
3 240 174 234
3 174 175 229
3 230 229 175
3 175 176 230
3 20 230 176
3 176 177 20
3 232 20 177
3 7 192 9
3 239 9 192
3 9 239 190
3 14 190 239
3 190 14 191
3 15 191 14
3 192 18 239
3 198 239 18
3 239 198 14
3 199 14 198
3 14 199 15
3 200 15 199
3 15 200 16
3 201 16 200
3 18 202 198
3 11 198 202
3 198 11 199
3 17 199 11
3 199 17 200
3 205 200 17
3 200 205 201
3 206 201 205
3 202 245 235
3 202 235 11
3 202 207 237
3 202 237 245
3 11 235 236
3 11 236 17
3 17 208 209
3 17 209 205
3 17 236 19
3 17 19 208
3 207 210 38
3 207 38 237
3 208 19 242
3 208 242 212
3 210 213 243
3 210 243 38
3 211 214 215
3 211 215 212
3 211 212 242
3 211 242 241
3 211 241 244
3 211 244 214
3 213 216 233
3 213 233 243
3 214 217 218
3 214 218 215
3 214 244 246
3 214 246 217
3 216 221 248
3 216 248 233
3 217 246 247
3 217 247 218
3 218 222 223
3 218 223 219
3 218 247 1
3 218 1 222
3 220 224 225
3 220 225 221
3 221 225 3
3 221 3 248
3 222 1 2
3 222 2 223
3 223 2 6
3 223 6 228
3 224 229 230
3 224 230 225
3 225 230 20
3 225 20 226
3 225 226 4
3 225 4 3
3 226 20 232
3 226 232 227
3 226 227 5
3 226 5 4
3 227 228 6
3 227 6 5
3 245 237 238
3 245 238 235
3 235 238 19
3 235 19 236
3 237 38 241
3 237 241 238
3 238 241 242
3 238 242 19
3 38 243 244
3 38 244 241
3 243 233 246
3 243 246 244
3 233 248 0
3 233 0 246
3 246 0 1
3 246 1 247
3 248 3 4
3 248 4 0
3 0 4 5
3 0 5 1
3 1 5 6
3 1 6 2
POINT_DATA 249
SCALARS scalars float64
LOOKUP_TABLE scalars
1032.0
1032.0
1032.0
1032.0
1032.0
1032.0
1032.0
1032.0
1032.0
1032.0
1032.0
1032.0
1032.0
1032.0
1032.0
1032.0
1032.0
1032.0
1032.0
1032.0
1032.0
1032.0
1032.0
1032.0
1032.0
1032.0
1032.0
1032.0
1032.0
1032.0
1032.0
1032.0
1032.0
1032.0
1032.0
1032.0
1032.0
1032.0
1032.0
1032.0
1032.0
1032.0
1032.0
1032.0
1032.0
1032.0
1032.0
1032.0
1032.0
1032.0
1032.0
1032.0
1032.0
1032.0
1032.0
1032.0
1032.0
1032.0
1032.0
1032.0
1032.0
1032.0
1032.0
1032.0
1032.0
1032.0
1032.0
1032.0
1032.0
1032.0
1032.0
1032.0
1032.0
1032.0
1032.0
1032.0
1032.0
1032.0
1032.0
1032.0
1032.0
1032.0
1032.0
1032.0
1032.0
1032.0
1032.0
1032.0
1032.0
1032.0
1032.0
1032.0
1032.0
1032.0
1032.0
1032.0
1032.0
1032.0
1032.0
1032.0
1032.0
1032.0
1032.0
1032.0
1032.0
1032.0
1032.0
1032.0
1032.0
1032.0
1032.0
1032.0
1032.0
1032.0
1032.0
1032.0
1032.0
1032.0
1032.0
1032.0
1032.0
1032.0
1032.0
1032.0
1032.0
1032.0
1032.0
1032.0
1032.0
1032.0
1032.0
1032.0
1032.0
1032.0
1032.0
1032.0
1032.0
1032.0
1032.0
1032.0
1032.0
1032.0
1032.0
1032.0
1032.0
1032.0
1032.0
1032.0
1032.0
1032.0
1032.0
1032.0
1032.0
1032.0
1032.0
1032.0
1032.0
1032.0
1032.0
1032.0
1032.0
1032.0
1032.0
1032.0
1032.0
1032.0
1032.0
1032.0
1032.0
1032.0
1032.0
1032.0
1032.0
1032.0
1032.0
1032.0
1032.0
1032.0
1032.0
1032.0
1032.0
1032.0
1032.0
1032.0
1032.0
1032.0
1032.0
1032.0
1032.0
1032.0
1032.0
1032.0
1032.0
1032.0
1032.0
1032.0
1032.0
1032.0
1032.0
1032.0
1032.0
1032.0
1032.0
1032.0
1032.0
1032.0
1032.0
1032.0
1032.0
1032.0
1032.0
1032.0
1032.0
1032.0
1032.0
1032.0
1032.0
1032.0
1032.0
1032.0
1032.0
1032.0
1032.0
1032.0
1032.0
1032.0
1032.0
1032.0
1032.0
1032.0
1032.0
1032.0
1032.0
1032.0
1032.0
1032.0
1032.0
1032.0
1032.0
1032.0
1032.0
1032.0
1032.0
1032.0
1032.0
1032.0
1032.0
1032.0
1032.0

